PSF NAMD

       0 !NTITLE

      70 !NATOM
       1 PROT    1          A       A       X       0.000000 120.000000
       2 PROT    2          A       A       X       0.000000 120.000000
       3 PROT    3          A       A       X       0.000000 120.000000
       4 PROT    4          A       A       X       0.000000 120.000000
       5 PROT    5          A       A       X       0.000000 120.000000
       6 PROT    6          A       A       X       0.000000 120.000000
       7 PROT    7          A       A       X       0.000000 120.000000
       8 PROT    8          A       A       X       0.000000 120.000000
       9 PROT    9          A       A       X       0.000000 120.000000
      10 PROT    10         A       A       X       0.000000 120.000000
      11 PROT    11         A       A       X       0.000000 120.000000
      12 PROT    12         A       A       X       0.000000 120.000000
      13 PROT    13         A       A       X       0.000000 120.000000
      14 PROT    14         A       A       X       0.000000 120.000000
      15 PROT    15         A       A       X       0.000000 120.000000
      16 PROT    16         A       A       X       0.000000 120.000000
      17 PROT    17         A       A       X       0.000000 120.000000
      18 PROT    18         A       A       X       0.000000 120.000000
      19 PROT    19         A       A       X       0.000000 120.000000
      20 PROT    20         A       A       X       0.000000 120.000000
      21 PROT    21         A       A       X       0.000000 120.000000
      22 PROT    22         A       A       X       0.000000 120.000000
      23 PROT    23         A       A       X       0.000000 120.000000
      24 PROT    24         A       A       X       0.000000 120.000000
      25 PROT    25         A       A       X       0.000000 120.000000
      26 PROT    26         A       A       X       0.000000 120.000000
      27 PROT    27         A       A       X       0.000000 120.000000
      28 PROT    28         A       A       X       0.000000 120.000000
      29 PROT    29         A       A       X       0.000000 120.000000
      30 PROT    30         A       A       X       0.000000 120.000000
      31 PROT    31         A       A       X       0.000000 120.000000
      32 PROT    32         A       A       X       0.000000 120.000000
      33 PROT    33         A       A       X       0.000000 120.000000
      34 PROT    34         A       A       X       0.000000 120.000000
      35 PROT    35         A       A       X       0.000000 120.000000
      36 PROT    36         A       A       X       0.000000 120.000000
      37 PROT    37         A       A       X       0.000000 120.000000
      38 PROT    38         A       A       X       0.000000 120.000000
      39 PROT    39         A       A       X       0.000000 120.000000
      40 PROT    40         A       A       X       0.000000 120.000000
      41 PROT    41         A       A       X       0.000000 120.000000
      42 PROT    42         A       A       X       0.000000 120.000000
      43 PROT    43         A       A       X       0.000000 120.000000
      44 PROT    44         A       A       X       0.000000 120.000000
      45 PROT    45         A       A       X       0.000000 120.000000
      46 PROT    46         A       A       X       0.000000 120.000000
      47 PROT    47         A       A       X       0.000000 120.000000
      48 PROT    48         A       A       X       0.000000 120.000000
      49 PROT    49         A       A       X       0.000000 120.000000
      50 PROT    50         A       A       X       0.000000 120.000000
      51 PROT    51         A       A       X       0.000000 120.000000
      52 PROT    52         A       A       X       0.000000 120.000000
      53 PROT    53         A       A       X       0.000000 120.000000
      54 PROT    54         A       A       X       0.000000 120.000000
      55 PROT    55         A       A       X       0.000000 120.000000
      56 PROT    56         A       A       X       0.000000 120.000000
      57 PROT    57         A       A       X       0.000000 120.000000
      58 PROT    58         A       A       X       0.000000 120.000000
      59 PROT    59         A       A       X       0.000000 120.000000
      60 PROT    60         A       A       X       0.000000 120.000000
      61 PROT    61         A       A       X       0.000000 120.000000
      62 PROT    62         A       A       X       0.000000 120.000000
      63 PROT    63         A       A       X       0.000000 120.000000
      64 PROT    64         A       A       X       0.000000 120.000000
      65 PROT    65         A       A       X       0.000000 120.000000
      66 PROT    66         A       A       X       0.000000 120.000000
      67 PROT    67         A       A       X       0.000000 120.000000
      68 PROT    68         A       A       X       0.000000 120.000000
      69 PROT    69         A       A       X       0.000000 120.000000
      70 PROT    70         A       A       X       0.000000 120.000000

      69 !NBOND
      35      36       47      48       64      65       44      45
      34      35        9      10       27      28       37      38
      28      29       40      41       63      64       67      68
      58      59       24      25       54      55       36      37
      39      40       32      33        6       7       20      21
      21      22       38      39       66      67       49      50
      12      13       11      12        1       2       30      31
      42      43       46      47       50      51       15      16
      60      61        5       6       61      62       52      53
      62      63       33      34       45      46       69      70
      10      11       51      52       29      30       55      56
      65      66        8       9       18      19       43      44
      48      49       59      60       14      15       26      27
       3       4       16      17       56      57       31      32
      25      26       68      69        2       3       23      24
      22      23       53      54        7       8       17      18
      19      20       13      14        4       5       57      58
      41      42 

       0 !NTHETA

       0 !NPHI

       0 !NIMPHI


       0 !NDON: donors



       0 !NACC: acceptors



       0 !NNB

      0       0       0       0       0       0       0       0
      0       0       0       0       0       0       0       0
      0       0       0       0       0       0       0       0
      0       0       0       0       0       0       0       0
      0       0       0       0       0       0       0       0
      0       0       0       0       0       0       0       0
      0       0       0       0       0       0       0       0
      0       0       0       0       0       0       0       0
      0      0      0      0      0      0

       1       0 !NGRP

