PSF NAMD

       0 !NTITLE

      70 !NATOM
       1 PROT    1          ALA     A       ALA2    0.000000 71.080000
       2 PROT    2          GLY     G       GLY2    0.000000 57.050000
       3 PROT    3          ALA     A       ALA2    0.000000 71.080000
       4 PROT    4          GLY     G       GLY2    0.000000 57.050000
       5 PROT    5          ALA     A       ALA2    0.000000 71.080000
       6 PROT    6          GLY     G       GLY2    0.000000 57.050000
       7 PROT    7          ALA     A       ALA2    0.000000 71.080000
       8 PROT    8          GLY     G       GLY2    0.000000 57.050000
       9 PROT    9          ALA     A       ALA2    0.000000 71.080000
      10 PROT    10         GLY     G       GLY2    0.000000 57.050000
      11 PROT    11         ALA     A       ALA2    0.000000 71.080000
      12 PROT    12         GLY     G       GLY2    0.000000 57.050000
      13 PROT    13         ALA     A       ALA2    0.000000 71.080000
      14 PROT    14         GLY     G       GLY2    0.000000 57.050000
      15 PROT    15         ALA     A       ALA2    0.000000 71.080000
      16 PROT    16         GLY     G       GLY2    0.000000 57.050000
      17 PROT    17         ALA     A       ALA2    0.000000 71.080000
      18 PROT    18         GLY     G       GLY2    0.000000 57.050000
      19 PROT    19         ALA     A       ALA2    0.000000 71.080000
      20 PROT    20         GLY     G       GLY2    0.000000 57.050000
      21 PROT    21         ALA     A       ALA2    0.000000 71.080000
      22 PROT    22         GLY     G       GLY2    0.000000 57.050000
      23 PROT    23         ALA     A       ALA2    0.000000 71.080000
      24 PROT    24         GLY     G       GLY2    0.000000 57.050000
      25 PROT    25         ALA     A       ALA2    0.000000 71.080000
      26 PROT    26         GLY     G       GLY2    0.000000 57.050000
      27 PROT    27         ALA     A       ALA2    0.000000 71.080000
      28 PROT    28         GLY     G       GLY2    0.000000 57.050000
      29 PROT    29         ALA     A       ALA2    0.000000 71.080000
      30 PROT    30         GLY     G       GLY2    0.000000 57.050000
      31 PROT    31         ALA     A       ALA2    0.000000 71.080000
      32 PROT    32         GLY     G       GLY2    0.000000 57.050000
      33 PROT    33         ALA     A       ALA2    0.000000 71.080000
      34 PROT    34         GLY     G       GLY2    0.000000 57.050000
      35 PROT    35         ALA     A       ALA2    0.000000 71.080000
      36 PROT    36         GLY     G       GLY2    0.000000 57.050000
      37 PROT    37         ALA     A       ALA2    0.000000 71.080000
      38 PROT    38         GLY     G       GLY2    0.000000 57.050000
      39 PROT    39         ALA     A       ALA2    0.000000 71.080000
      40 PROT    40         GLY     G       GLY2    0.000000 57.050000
      41 PROT    41         ALA     A       ALA2    0.000000 71.080000
      42 PROT    42         GLY     G       GLY2    0.000000 57.050000
      43 PROT    43         ALA     A       ALA2    0.000000 71.080000
      44 PROT    44         GLY     G       GLY2    0.000000 57.050000
      45 PROT    45         ALA     A       ALA2    0.000000 71.080000
      46 PROT    46         GLY     G       GLY2    0.000000 57.050000
      47 PROT    47         ALA     A       ALA2    0.000000 71.080000
      48 PROT    48         GLY     G       GLY2    0.000000 57.050000
      49 PROT    49         ALA     A       ALA2    0.000000 71.080000
      50 PROT    50         GLY     G       GLY2    0.000000 57.050000
      51 PROT    51         ALA     A       ALA2    0.000000 71.080000
      52 PROT    52         GLY     G       GLY2    0.000000 57.050000
      53 PROT    53         ALA     A       ALA2    0.000000 71.080000
      54 PROT    54         GLY     G       GLY2    0.000000 57.050000
      55 PROT    55         ALA     A       ALA2    0.000000 71.080000
      56 PROT    56         GLY     G       GLY2    0.000000 57.050000
      57 PROT    57         ALA     A       ALA2    0.000000 71.080000
      58 PROT    58         GLY     G       GLY2    0.000000 57.050000
      59 PROT    59         ALA     A       ALA2    0.000000 71.080000
      60 PROT    60         GLY     G       GLY2    0.000000 57.050000
      61 PROT    61         ALA     A       ALA2    0.000000 71.080000
      62 PROT    62         GLY     G       GLY2    0.000000 57.050000
      63 PROT    63         ALA     A       ALA2    0.000000 71.080000
      64 PROT    64         GLY     G       GLY2    0.000000 57.050000
      65 PROT    65         ALA     A       ALA2    0.000000 71.080000
      66 PROT    66         GLY     G       GLY2    0.000000 57.050000
      67 PROT    67         ALA     A       ALA2    0.000000 71.080000
      68 PROT    68         GLY     G       GLY2    0.000000 57.050000
      69 PROT    69         ALA     A       ALA2    0.000000 71.080000
      70 PROT    70         GLY     G       GLY2    0.000000 57.050000

      69 !NBOND
      19      20        2       3       57      58        5       6
      18      19       13      14       22      23       10      11
      43      44       40      41       53      54       36      37
      34      35       39      40       11      12       33      34
      51      52       44      45       67      68       12      13
      42      43       25      26        7       8       24      25
      38      39       28      29       50      51       60      61
      69      70       14      15        3       4       58      59
      64      65       65      66       31      32       32      33
      56      57       66      67        6       7       21      22
      29      30       68      69       47      48       59      60
      54      55       20      21       17      18       41      42
       9      10       52      53       48      49       15      16
      45      46       61      62       35      36       49      50
      16      17       27      28       23      24       30      31
       8       9        4       5       55      56       46      47
      26      27       63      64       37      38        1       2
      62      63 

       0 !NTHETA

       0 !NPHI

       0 !NIMPHI


       0 !NDON: donors



       0 !NACC: acceptors



       0 !NNB

      0       0       0       0       0       0       0       0
      0       0       0       0       0       0       0       0
      0       0       0       0       0       0       0       0
      0       0       0       0       0       0       0       0
      0       0       0       0       0       0       0       0
      0       0       0       0       0       0       0       0
      0       0       0       0       0       0       0       0
      0       0       0       0       0       0       0       0
      0      0      0      0      0      0

       1       0 !NGRP

