PSF NAMD

       0 !NTITLE

     280 !NATOM
       1 PROT    1          A       A       X       0.000000 120.000000
       2 PROT    2          A       A       X       0.000000 120.000000
       3 PROT    3          A       A       X       0.000000 120.000000
       4 PROT    4          A       A       X       0.000000 120.000000
       5 PROT    5          A       A       X       0.000000 120.000000
       6 PROT    6          A       A       X       0.000000 120.000000
       7 PROT    7          A       A       X       0.000000 120.000000
       8 PROT    8          A       A       X       0.000000 120.000000
       9 PROT    9          A       A       X       0.000000 120.000000
      10 PROT    10         A       A       X       0.000000 120.000000
      11 PROT    11         A       A       X       0.000000 120.000000
      12 PROT    12         A       A       X       0.000000 120.000000
      13 PROT    13         A       A       X       0.000000 120.000000
      14 PROT    14         A       A       X       0.000000 120.000000
      15 PROT    15         A       A       X       0.000000 120.000000
      16 PROT    16         A       A       X       0.000000 120.000000
      17 PROT    17         A       A       X       0.000000 120.000000
      18 PROT    18         A       A       X       0.000000 120.000000
      19 PROT    19         A       A       X       0.000000 120.000000
      20 PROT    20         A       A       X       0.000000 120.000000
      21 PROT    21         A       A       X       0.000000 120.000000
      22 PROT    22         A       A       X       0.000000 120.000000
      23 PROT    23         A       A       X       0.000000 120.000000
      24 PROT    24         A       A       X       0.000000 120.000000
      25 PROT    25         A       A       X       0.000000 120.000000
      26 PROT    26         A       A       X       0.000000 120.000000
      27 PROT    27         A       A       X       0.000000 120.000000
      28 PROT    28         A       A       X       0.000000 120.000000
      29 PROT    29         A       A       X       0.000000 120.000000
      30 PROT    30         A       A       X       0.000000 120.000000
      31 PROT    31         A       A       X       0.000000 120.000000
      32 PROT    32         A       A       X       0.000000 120.000000
      33 PROT    33         A       A       X       0.000000 120.000000
      34 PROT    34         A       A       X       0.000000 120.000000
      35 PROT    35         A       A       X       0.000000 120.000000
      36 PROT    36         A       A       X       0.000000 120.000000
      37 PROT    37         A       A       X       0.000000 120.000000
      38 PROT    38         A       A       X       0.000000 120.000000
      39 PROT    39         A       A       X       0.000000 120.000000
      40 PROT    40         A       A       X       0.000000 120.000000
      41 PROT    41         A       A       X       0.000000 120.000000
      42 PROT    42         A       A       X       0.000000 120.000000
      43 PROT    43         A       A       X       0.000000 120.000000
      44 PROT    44         A       A       X       0.000000 120.000000
      45 PROT    45         A       A       X       0.000000 120.000000
      46 PROT    46         A       A       X       0.000000 120.000000
      47 PROT    47         A       A       X       0.000000 120.000000
      48 PROT    48         A       A       X       0.000000 120.000000
      49 PROT    49         A       A       X       0.000000 120.000000
      50 PROT    50         A       A       X       0.000000 120.000000
      51 PROT    51         A       A       X       0.000000 120.000000
      52 PROT    52         A       A       X       0.000000 120.000000
      53 PROT    53         A       A       X       0.000000 120.000000
      54 PROT    54         A       A       X       0.000000 120.000000
      55 PROT    55         A       A       X       0.000000 120.000000
      56 PROT    56         A       A       X       0.000000 120.000000
      57 PROT    57         A       A       X       0.000000 120.000000
      58 PROT    58         A       A       X       0.000000 120.000000
      59 PROT    59         A       A       X       0.000000 120.000000
      60 PROT    60         A       A       X       0.000000 120.000000
      61 PROT    61         A       A       X       0.000000 120.000000
      62 PROT    62         A       A       X       0.000000 120.000000
      63 PROT    63         A       A       X       0.000000 120.000000
      64 PROT    64         A       A       X       0.000000 120.000000
      65 PROT    65         A       A       X       0.000000 120.000000
      66 PROT    66         A       A       X       0.000000 120.000000
      67 PROT    67         A       A       X       0.000000 120.000000
      68 PROT    68         A       A       X       0.000000 120.000000
      69 PROT    69         A       A       X       0.000000 120.000000
      70 PROT    70         A       A       X       0.000000 120.000000
      71 PROT    1          ALA     A       ALA2    0.000000 71.080000
      72 PROT    2          GLY     G       GLY2    0.000000 57.050000
      73 PROT    3          ALA     A       ALA2    0.000000 71.080000
      74 PROT    4          GLY     G       GLY2    0.000000 57.050000
      75 PROT    5          ALA     A       ALA2    0.000000 71.080000
      76 PROT    6          GLY     G       GLY2    0.000000 57.050000
      77 PROT    7          ALA     A       ALA2    0.000000 71.080000
      78 PROT    8          GLY     G       GLY2    0.000000 57.050000
      79 PROT    9          ALA     A       ALA2    0.000000 71.080000
      80 PROT    10         GLY     G       GLY2    0.000000 57.050000
      81 PROT    11         ALA     A       ALA2    0.000000 71.080000
      82 PROT    12         GLY     G       GLY2    0.000000 57.050000
      83 PROT    13         ALA     A       ALA2    0.000000 71.080000
      84 PROT    14         GLY     G       GLY2    0.000000 57.050000
      85 PROT    15         ALA     A       ALA2    0.000000 71.080000
      86 PROT    16         GLY     G       GLY2    0.000000 57.050000
      87 PROT    17         ALA     A       ALA2    0.000000 71.080000
      88 PROT    18         GLY     G       GLY2    0.000000 57.050000
      89 PROT    19         ALA     A       ALA2    0.000000 71.080000
      90 PROT    20         GLY     G       GLY2    0.000000 57.050000
      91 PROT    21         ALA     A       ALA2    0.000000 71.080000
      92 PROT    22         GLY     G       GLY2    0.000000 57.050000
      93 PROT    23         ALA     A       ALA2    0.000000 71.080000
      94 PROT    24         GLY     G       GLY2    0.000000 57.050000
      95 PROT    25         ALA     A       ALA2    0.000000 71.080000
      96 PROT    26         GLY     G       GLY2    0.000000 57.050000
      97 PROT    27         ALA     A       ALA2    0.000000 71.080000
      98 PROT    28         GLY     G       GLY2    0.000000 57.050000
      99 PROT    29         ALA     A       ALA2    0.000000 71.080000
     100 PROT    30         GLY     G       GLY2    0.000000 57.050000
     101 PROT    31         ALA     A       ALA2    0.000000 71.080000
     102 PROT    32         GLY     G       GLY2    0.000000 57.050000
     103 PROT    33         ALA     A       ALA2    0.000000 71.080000
     104 PROT    34         GLY     G       GLY2    0.000000 57.050000
     105 PROT    35         ALA     A       ALA2    0.000000 71.080000
     106 PROT    36         GLY     G       GLY2    0.000000 57.050000
     107 PROT    37         ALA     A       ALA2    0.000000 71.080000
     108 PROT    38         GLY     G       GLY2    0.000000 57.050000
     109 PROT    39         ALA     A       ALA2    0.000000 71.080000
     110 PROT    40         GLY     G       GLY2    0.000000 57.050000
     111 PROT    41         ALA     A       ALA2    0.000000 71.080000
     112 PROT    42         GLY     G       GLY2    0.000000 57.050000
     113 PROT    43         ALA     A       ALA2    0.000000 71.080000
     114 PROT    44         GLY     G       GLY2    0.000000 57.050000
     115 PROT    45         ALA     A       ALA2    0.000000 71.080000
     116 PROT    46         GLY     G       GLY2    0.000000 57.050000
     117 PROT    47         ALA     A       ALA2    0.000000 71.080000
     118 PROT    48         GLY     G       GLY2    0.000000 57.050000
     119 PROT    49         ALA     A       ALA2    0.000000 71.080000
     120 PROT    50         GLY     G       GLY2    0.000000 57.050000
     121 PROT    51         ALA     A       ALA2    0.000000 71.080000
     122 PROT    52         GLY     G       GLY2    0.000000 57.050000
     123 PROT    53         ALA     A       ALA2    0.000000 71.080000
     124 PROT    54         GLY     G       GLY2    0.000000 57.050000
     125 PROT    55         ALA     A       ALA2    0.000000 71.080000
     126 PROT    56         GLY     G       GLY2    0.000000 57.050000
     127 PROT    57         ALA     A       ALA2    0.000000 71.080000
     128 PROT    58         GLY     G       GLY2    0.000000 57.050000
     129 PROT    59         ALA     A       ALA2    0.000000 71.080000
     130 PROT    60         GLY     G       GLY2    0.000000 57.050000
     131 PROT    61         ALA     A       ALA2    0.000000 71.080000
     132 PROT    62         GLY     G       GLY2    0.000000 57.050000
     133 PROT    63         ALA     A       ALA2    0.000000 71.080000
     134 PROT    64         GLY     G       GLY2    0.000000 57.050000
     135 PROT    65         ALA     A       ALA2    0.000000 71.080000
     136 PROT    66         GLY     G       GLY2    0.000000 57.050000
     137 PROT    67         ALA     A       ALA2    0.000000 71.080000
     138 PROT    68         GLY     G       GLY2    0.000000 57.050000
     139 PROT    69         ALA     A       ALA2    0.000000 71.080000
     140 PROT    70         GLY     G       GLY2    0.000000 57.050000
     141 PROT    1          ALA     AIDP    ALAIDP1 0.000000 71.080000
     142 PROT    2          GLY     GIDP    GLYIDP1 0.000000 57.050000
     143 PROT    3          ALA     AIDP    ALAIDP1 0.000000 71.080000
     144 PROT    4          GLY     GIDP    GLYIDP1 0.000000 57.050000
     145 PROT    5          ALA     AIDP    ALAIDP1 0.000000 71.080000
     146 PROT    6          GLY     GIDP    GLYIDP1 0.000000 57.050000
     147 PROT    7          ALA     AIDP    ALAIDP1 0.000000 71.080000
     148 PROT    8          GLY     GIDP    GLYIDP1 0.000000 57.050000
     149 PROT    9          ALA     AIDP    ALAIDP1 0.000000 71.080000
     150 PROT    10         GLY     GIDP    GLYIDP1 0.000000 57.050000
     151 PROT    11         ALA     AIDP    ALAIDP1 0.000000 71.080000
     152 PROT    12         GLY     GIDP    GLYIDP1 0.000000 57.050000
     153 PROT    13         ALA     AIDP    ALAIDP1 0.000000 71.080000
     154 PROT    14         GLY     GIDP    GLYIDP1 0.000000 57.050000
     155 PROT    15         ALA     AIDP    ALAIDP1 0.000000 71.080000
     156 PROT    16         GLY     GIDP    GLYIDP1 0.000000 57.050000
     157 PROT    17         ALA     AIDP    ALAIDP1 0.000000 71.080000
     158 PROT    18         GLY     GIDP    GLYIDP1 0.000000 57.050000
     159 PROT    19         ALA     AIDP    ALAIDP1 0.000000 71.080000
     160 PROT    20         GLY     GIDP    GLYIDP1 0.000000 57.050000
     161 PROT    21         ALA     AIDP    ALAIDP1 0.000000 71.080000
     162 PROT    22         GLY     GIDP    GLYIDP1 0.000000 57.050000
     163 PROT    23         ALA     AIDP    ALAIDP1 0.000000 71.080000
     164 PROT    24         GLY     GIDP    GLYIDP1 0.000000 57.050000
     165 PROT    25         ALA     AIDP    ALAIDP1 0.000000 71.080000
     166 PROT    26         GLY     GIDP    GLYIDP1 0.000000 57.050000
     167 PROT    27         ALA     AIDP    ALAIDP1 0.000000 71.080000
     168 PROT    28         GLY     GIDP    GLYIDP1 0.000000 57.050000
     169 PROT    29         ALA     AIDP    ALAIDP1 0.000000 71.080000
     170 PROT    30         GLY     GIDP    GLYIDP1 0.000000 57.050000
     171 PROT    31         ALA     AIDP    ALAIDP1 0.000000 71.080000
     172 PROT    32         GLY     GIDP    GLYIDP1 0.000000 57.050000
     173 PROT    33         ALA     AIDP    ALAIDP1 0.000000 71.080000
     174 PROT    34         GLY     GIDP    GLYIDP1 0.000000 57.050000
     175 PROT    35         ALA     AIDP    ALAIDP1 0.000000 71.080000
     176 PROT    36         GLY     GIDP    GLYIDP1 0.000000 57.050000
     177 PROT    37         ALA     AIDP    ALAIDP1 0.000000 71.080000
     178 PROT    38         GLY     GIDP    GLYIDP1 0.000000 57.050000
     179 PROT    39         ALA     AIDP    ALAIDP1 0.000000 71.080000
     180 PROT    40         GLY     GIDP    GLYIDP1 0.000000 57.050000
     181 PROT    41         ALA     AIDP    ALAIDP1 0.000000 71.080000
     182 PROT    42         GLY     GIDP    GLYIDP1 0.000000 57.050000
     183 PROT    43         ALA     AIDP    ALAIDP1 0.000000 71.080000
     184 PROT    44         GLY     GIDP    GLYIDP1 0.000000 57.050000
     185 PROT    45         ALA     AIDP    ALAIDP1 0.000000 71.080000
     186 PROT    46         GLY     GIDP    GLYIDP1 0.000000 57.050000
     187 PROT    47         ALA     AIDP    ALAIDP1 0.000000 71.080000
     188 PROT    48         GLY     GIDP    GLYIDP1 0.000000 57.050000
     189 PROT    49         ALA     AIDP    ALAIDP1 0.000000 71.080000
     190 PROT    50         GLY     GIDP    GLYIDP1 0.000000 57.050000
     191 PROT    51         ALA     AIDP    ALAIDP1 0.000000 71.080000
     192 PROT    52         GLY     GIDP    GLYIDP1 0.000000 57.050000
     193 PROT    53         ALA     AIDP    ALAIDP1 0.000000 71.080000
     194 PROT    54         GLY     GIDP    GLYIDP1 0.000000 57.050000
     195 PROT    55         ALA     AIDP    ALAIDP1 0.000000 71.080000
     196 PROT    56         GLY     GIDP    GLYIDP1 0.000000 57.050000
     197 PROT    57         ALA     AIDP    ALAIDP1 0.000000 71.080000
     198 PROT    58         GLY     GIDP    GLYIDP1 0.000000 57.050000
     199 PROT    59         ALA     AIDP    ALAIDP1 0.000000 71.080000
     200 PROT    60         GLY     GIDP    GLYIDP1 0.000000 57.050000
     201 PROT    61         ALA     AIDP    ALAIDP1 0.000000 71.080000
     202 PROT    62         GLY     GIDP    GLYIDP1 0.000000 57.050000
     203 PROT    63         ALA     AIDP    ALAIDP1 0.000000 71.080000
     204 PROT    64         GLY     GIDP    GLYIDP1 0.000000 57.050000
     205 PROT    65         ALA     AIDP    ALAIDP1 0.000000 71.080000
     206 PROT    66         GLY     GIDP    GLYIDP1 0.000000 57.050000
     207 PROT    67         ALA     AIDP    ALAIDP1 0.000000 71.080000
     208 PROT    68         GLY     GIDP    GLYIDP1 0.000000 57.050000
     209 PROT    69         ALA     AIDP    ALAIDP1 0.000000 71.080000
     210 PROT    70         GLY     GIDP    GLYIDP1 0.000000 57.050000
     211 PROT    1          A       A       ALAv1.1 0.000000 71.070000
     212 PROT    2          G       G       GLYv1.1 0.000000 57.050000
     213 PROT    3          A       A       ALAv1.1 0.000000 71.070000
     214 PROT    4          G       G       GLYv1.1 0.000000 57.050000
     215 PROT    5          A       A       ALAv1.1 0.000000 71.070000
     216 PROT    6          G       G       GLYv1.1 0.000000 57.050000
     217 PROT    7          A       A       ALAv1.1 0.000000 71.070000
     218 PROT    8          G       G       GLYv1.1 0.000000 57.050000
     219 PROT    9          A       A       ALAv1.1 0.000000 71.070000
     220 PROT    10         G       G       GLYv1.1 0.000000 57.050000
     221 PROT    11         A       A       ALAv1.1 0.000000 71.070000
     222 PROT    12         G       G       GLYv1.1 0.000000 57.050000
     223 PROT    13         A       A       ALAv1.1 0.000000 71.070000
     224 PROT    14         G       G       GLYv1.1 0.000000 57.050000
     225 PROT    15         A       A       ALAv1.1 0.000000 71.070000
     226 PROT    16         G       G       GLYv1.1 0.000000 57.050000
     227 PROT    17         A       A       ALAv1.1 0.000000 71.070000
     228 PROT    18         G       G       GLYv1.1 0.000000 57.050000
     229 PROT    19         A       A       ALAv1.1 0.000000 71.070000
     230 PROT    20         G       G       GLYv1.1 0.000000 57.050000
     231 PROT    21         A       A       ALAv1.1 0.000000 71.070000
     232 PROT    22         G       G       GLYv1.1 0.000000 57.050000
     233 PROT    23         A       A       ALAv1.1 0.000000 71.070000
     234 PROT    24         G       G       GLYv1.1 0.000000 57.050000
     235 PROT    25         A       A       ALAv1.1 0.000000 71.070000
     236 PROT    26         G       G       GLYv1.1 0.000000 57.050000
     237 PROT    27         A       A       ALAv1.1 0.000000 71.070000
     238 PROT    28         G       G       GLYv1.1 0.000000 57.050000
     239 PROT    29         A       A       ALAv1.1 0.000000 71.070000
     240 PROT    30         G       G       GLYv1.1 0.000000 57.050000
     241 PROT    31         A       A       ALAv1.1 0.000000 71.070000
     242 PROT    32         G       G       GLYv1.1 0.000000 57.050000
     243 PROT    33         A       A       ALAv1.1 0.000000 71.070000
     244 PROT    34         G       G       GLYv1.1 0.000000 57.050000
     245 PROT    35         A       A       ALAv1.1 0.000000 71.070000
     246 PROT    36         G       G       GLYv1.1 0.000000 57.050000
     247 PROT    37         A       A       ALAv1.1 0.000000 71.070000
     248 PROT    38         G       G       GLYv1.1 0.000000 57.050000
     249 PROT    39         A       A       ALAv1.1 0.000000 71.070000
     250 PROT    40         G       G       GLYv1.1 0.000000 57.050000
     251 PROT    41         A       A       ALAv1.1 0.000000 71.070000
     252 PROT    42         G       G       GLYv1.1 0.000000 57.050000
     253 PROT    43         A       A       ALAv1.1 0.000000 71.070000
     254 PROT    44         G       G       GLYv1.1 0.000000 57.050000
     255 PROT    45         A       A       ALAv1.1 0.000000 71.070000
     256 PROT    46         G       G       GLYv1.1 0.000000 57.050000
     257 PROT    47         A       A       ALAv1.1 0.000000 71.070000
     258 PROT    48         G       G       GLYv1.1 0.000000 57.050000
     259 PROT    49         A       A       ALAv1.1 0.000000 71.070000
     260 PROT    50         G       G       GLYv1.1 0.000000 57.050000
     261 PROT    51         A       A       ALAv1.1 0.000000 71.070000
     262 PROT    52         G       G       GLYv1.1 0.000000 57.050000
     263 PROT    53         A       A       ALAv1.1 0.000000 71.070000
     264 PROT    54         G       G       GLYv1.1 0.000000 57.050000
     265 PROT    55         A       A       ALAv1.1 0.000000 71.070000
     266 PROT    56         G       G       GLYv1.1 0.000000 57.050000
     267 PROT    57         A       A       ALAv1.1 0.000000 71.070000
     268 PROT    58         G       G       GLYv1.1 0.000000 57.050000
     269 PROT    59         A       A       ALAv1.1 0.000000 71.070000
     270 PROT    60         G       G       GLYv1.1 0.000000 57.050000
     271 PROT    61         A       A       ALAv1.1 0.000000 71.070000
     272 PROT    62         G       G       GLYv1.1 0.000000 57.050000
     273 PROT    63         A       A       ALAv1.1 0.000000 71.070000
     274 PROT    64         G       G       GLYv1.1 0.000000 57.050000
     275 PROT    65         A       A       ALAv1.1 0.000000 71.070000
     276 PROT    66         G       G       GLYv1.1 0.000000 57.050000
     277 PROT    67         A       A       ALAv1.1 0.000000 71.070000
     278 PROT    68         G       G       GLYv1.1 0.000000 57.050000
     279 PROT    69         A       A       ALAv1.1 0.000000 71.070000
     280 PROT    70         G       G       GLYv1.1 0.000000 57.050000

     276 !NBOND
      89      90       72      73       75      76      276     277
      88      89      278     279       80      81      110     111
     123     124       37      38       28      29       63      64
     121     122       24      25      143     144      200     201
     154     155      192     193      238     239       94      95
     108     109      120     121      130     131      222     223
     139     140      156     157      190     191      215     216
     246     247       51      52      159     160       29      30
      65      66      155     156       43      44      257     258
     111     112      177     178      270     271      118     119
     204     205       26      27      119     120      131     132
     218     219       31      32      235     236        2       3
     224     225      147     148      100     101      272     273
      17      18      209     210      217     218      259     260
     221     222      243     244      198     199      107     108
      71      72      129     130      216     217      186     187
      47      48       35      36       41      42      132     133
     212     213      273     274      171     172      113     114
     230     231      223     224      199     200       58      59
     141     142      219     220      256     257       39      40
     229     230      137     138      249     250       82      83
     148     149       66      67      166     167       49      50
     188     189      184     185       12      13        1       2
      46      47      206     207      211     212      128     129
      15      16      101     102      136     137      126     127
     195     196       76      77       33      34       99     100
     242     243      253     254      164     165       90      91
      18      19      146     147      225     226       79      80
     254     255       48      49      122     123      165     166
      85      86       14      15      115     116      231     232
     239     240       16      17       97      98      250     251
     268     269      176     177       25      26       68      69
     178     179      168     169      214     215      233     234
     220     221      226     227      255     256      258     259
     133     134      247     248        4       5      163     164
     127     128      144     145       34      35      189     190
     191     192       27      28       83      84      241     242
     244     245      262     263      275     276      174     175
     106     107      104     105      109     110      167     168
     277     278      175     176       54      55      150     151
     236     237      114     115      265     266       32      33
     234     235       20      21      112     113      196     197
      77      78       38      39      208     209      173     174
      30      31      279     280       50      51       60      61
       5       6      102     103      187     188       91      92
     152     153       45      46       69      70      160     161
     145     146      169     170      266     267      237     238
     180     181      248     249        8       9      153     154
     142     143       59      60       56      57        3       4
     105     106       86      87       93      94      201     202
     161     162      263     264       23      24      202     203
      22      23      274     275      157     158       78      79
      53      54        7       8       74      75      125     126
     193     194      197     198       96      97      203     204
     240     241      170     171       64      65      179     180
     264     265       44      45      245     246      267     268
       9      10       92      93       40      41       81      82
      67      68      103     104      172     173      227     228
     181     182      183     184       36      37      207     208
       6       7      205     206       21      22       95      96
     252     253       98      99      228     229       11      12
      61      62       84      85       42      43       73      74
     134     135      135     136       52      53       62      63
     138     139      117     118       10      11      213     214
     124     125      185     186       55      56       87      88
     271     272      269     270      251     252      151     152
     260     261      149     150      158     159      162     163
     194     195      261     262      182     183       19      20
     232     233      116     117       13      14       57      58

      68 !NTHETA
     214     215     216      227     228     229      277     278     279
     271     272     273      225     226     227      237     238     239
     245     246     247      267     268     269      252     253     254
     240     241     242      258     259     260      239     240     241
     244     245     246      216     217     218      235     236     237
     261     262     263      224     225     226      229     230     231
     213     214     215      219     220     221      230     231     232
     253     254     255      257     258     259      268     269     270
     234     235     236      262     263     264      243     244     245
     233     234     235      242     243     244      263     264     265
     275     276     277      264     265     266      278     279     280
     232     233     234      222     223     224      238     239     240
     215     216     217      220     221     222      223     224     225
     251     252     253      249     250     251      246     247     248
     228     229     230      269     270     271      211     212     213
     259     260     261      260     261     262      247     248     249
     236     237     238      256     257     258      274     275     276
     250     251     252      248     249     250      272     273     274
     273     274     275      255     256     257      254     255     256
     241     242     243      270     271     272      218     219     220
     221     222     223      226     227     228      231     232     233
     266     267     268      212     213     214      217     218     219
     265     266     267      276     277     278 

      67 !NPHI
     230     231     232     233      237     238     239     240
     242     243     244     245      267     268     269     270
     235     236     237     238      225     226     227     228
     249     250     251     252      218     219     220     221
     257     258     259     260      234     235     236     237
     258     259     260     261      244     245     246     247
     238     239     240     241      232     233     234     235
     229     230     231     232      236     237     238     239
     252     253     254     255      212     213     214     215
     260     261     262     263      253     254     255     256
     274     275     276     277      221     222     223     224
     261     262     263     264      246     247     248     249
     262     263     264     265      241     242     243     244
     255     256     257     258      233     234     235     236
     222     223     224     225      213     214     215     216
     239     240     241     242      220     221     222     223
     211     212     213     214      273     274     275     276
     248     249     250     251      256     257     258     259
     266     267     268     269      271     272     273     274
     251     252     253     254      217     218     219     220
     223     224     225     226      245     246     247     248
     216     217     218     219      243     244     245     246
     254     255     256     257      275     276     277     278
     247     248     249     250      272     273     274     275
     250     251     252     253      240     241     242     243
     215     216     217     218      227     228     229     230
     264     265     266     267      276     277     278     279
     277     278     279     280      219     220     221     222
     259     260     261     262      265     266     267     268
     270     271     272     273      214     215     216     217
     269     270     271     272      226     227     228     229
     224     225     226     227      231     232     233     234
     228     229     230     231      263     264     265     266
     268     269     270     271 

       0 !NIMPHI


       0 !NDON: donors



       0 !NACC: acceptors



       0 !NNB

      0       0       0       0       0       0       0       0
      0       0       0       0       0       0       0       0
      0       0       0       0       0       0       0       0
      0       0       0       0       0       0       0       0
      0       0       0       0       0       0       0       0
      0       0       0       0       0       0       0       0
      0       0       0       0       0       0       0       0
      0       0       0       0       0       0       0       0
      0       0       0       0       0       0       0       0
      0       0       0       0       0       0       0       0
      0       0       0       0       0       0       0       0
      0       0       0       0       0       0       0       0
      0       0       0       0       0       0       0       0
      0       0       0       0       0       0       0       0
      0       0       0       0       0       0       0       0
      0       0       0       0       0       0       0       0
      0       0       0       0       0       0       0       0
      0       0       0       0       0       0       0       0
      0       0       0       0       0       0       0       0
      0       0       0       0       0       0       0       0
      0       0       0       0       0       0       0       0
      0       0       0       0       0       0       0       0
      0       0       0       0       0       0       0       0
      0       0       0       0       0       0       0       0
      0       0       0       0       0       0       0       0
      0       0       0       0       0       0       0       0
      0       0       0       0       0       0       0       0
      0       0       0       0       0       0       0       0
      0       0       0       0       0       0       0       0
      0       0       0       0       0       0       0       0
      0       0       0       0       0       0       0       0
      0       0       0       0       0       0       0       0
      0       0       0       0       0       0       0       0
      0       0       0       0       0       0       0       0
      0       0       0       0       0       0       0       0


       1       0 !NGRP

