PSF NAMD

       0 !NTITLE

     140 !NATOM
       1 PROT    1          P       P       P       0.000000 121.000000
       2 PROT    1          B       B       B       0.000000 181.000000
       3 PROT    2          P       P       P       0.000000 121.000000
       4 PROT    2          B       B       B       0.000000 181.000000
       5 PROT    3          P       P       P       0.000000 121.000000
       6 PROT    3          B       B       B       0.000000 181.000000
       7 PROT    4          P       P       P       0.000000 121.000000
       8 PROT    4          B       B       B       0.000000 181.000000
       9 PROT    5          P       P       P       0.000000 121.000000
      10 PROT    5          B       B       B       0.000000 181.000000
      11 PROT    6          P       P       P       0.000000 121.000000
      12 PROT    6          B       B       B       0.000000 181.000000
      13 PROT    7          P       P       P       0.000000 121.000000
      14 PROT    7          B       B       B       0.000000 181.000000
      15 PROT    8          P       P       P       0.000000 121.000000
      16 PROT    8          B       B       B       0.000000 181.000000
      17 PROT    9          P       P       P       0.000000 121.000000
      18 PROT    9          B       B       B       0.000000 181.000000
      19 PROT    10         P       P       P       0.000000 121.000000
      20 PROT    10         B       B       B       0.000000 181.000000
      21 PROT    11         P       P       P       0.000000 121.000000
      22 PROT    11         B       B       B       0.000000 181.000000
      23 PROT    12         P       P       P       0.000000 121.000000
      24 PROT    12         B       B       B       0.000000 181.000000
      25 PROT    13         P       P       P       0.000000 121.000000
      26 PROT    13         B       B       B       0.000000 181.000000
      27 PROT    14         P       P       P       0.000000 121.000000
      28 PROT    14         B       B       B       0.000000 181.000000
      29 PROT    15         P       P       P       0.000000 121.000000
      30 PROT    15         B       B       B       0.000000 181.000000
      31 PROT    16         P       P       P       0.000000 121.000000
      32 PROT    16         B       B       B       0.000000 181.000000
      33 PROT    17         P       P       P       0.000000 121.000000
      34 PROT    17         B       B       B       0.000000 181.000000
      35 PROT    18         P       P       P       0.000000 121.000000
      36 PROT    18         B       B       B       0.000000 181.000000
      37 PROT    19         P       P       P       0.000000 121.000000
      38 PROT    19         B       B       B       0.000000 181.000000
      39 PROT    20         P       P       P       0.000000 121.000000
      40 PROT    20         B       B       B       0.000000 181.000000
      41 PROT    21         P       P       P       0.000000 121.000000
      42 PROT    21         B       B       B       0.000000 181.000000
      43 PROT    22         P       P       P       0.000000 121.000000
      44 PROT    22         B       B       B       0.000000 181.000000
      45 PROT    23         P       P       P       0.000000 121.000000
      46 PROT    23         B       B       B       0.000000 181.000000
      47 PROT    24         P       P       P       0.000000 121.000000
      48 PROT    24         B       B       B       0.000000 181.000000
      49 PROT    25         P       P       P       0.000000 121.000000
      50 PROT    25         B       B       B       0.000000 181.000000
      51 PROT    26         P       P       P       0.000000 121.000000
      52 PROT    26         B       B       B       0.000000 181.000000
      53 PROT    27         P       P       P       0.000000 121.000000
      54 PROT    27         B       B       B       0.000000 181.000000
      55 PROT    28         P       P       P       0.000000 121.000000
      56 PROT    28         B       B       B       0.000000 181.000000
      57 PROT    29         P       P       P       0.000000 121.000000
      58 PROT    29         B       B       B       0.000000 181.000000
      59 PROT    30         P       P       P       0.000000 121.000000
      60 PROT    30         B       B       B       0.000000 181.000000
      61 PROT    31         P       P       P       0.000000 121.000000
      62 PROT    31         B       B       B       0.000000 181.000000
      63 PROT    32         P       P       P       0.000000 121.000000
      64 PROT    32         B       B       B       0.000000 181.000000
      65 PROT    33         P       P       P       0.000000 121.000000
      66 PROT    33         B       B       B       0.000000 181.000000
      67 PROT    34         P       P       P       0.000000 121.000000
      68 PROT    34         B       B       B       0.000000 181.000000
      69 PROT    35         P       P       P       0.000000 121.000000
      70 PROT    35         B       B       B       0.000000 181.000000
      71 PROT    36         P       P       P       0.000000 121.000000
      72 PROT    36         B       B       B       0.000000 181.000000
      73 PROT    37         P       P       P       0.000000 121.000000
      74 PROT    37         B       B       B       0.000000 181.000000
      75 PROT    38         P       P       P       0.000000 121.000000
      76 PROT    38         B       B       B       0.000000 181.000000
      77 PROT    39         P       P       P       0.000000 121.000000
      78 PROT    39         B       B       B       0.000000 181.000000
      79 PROT    40         P       P       P       0.000000 121.000000
      80 PROT    40         B       B       B       0.000000 181.000000
      81 PROT    41         P       P       P       0.000000 121.000000
      82 PROT    41         B       B       B       0.000000 181.000000
      83 PROT    42         P       P       P       0.000000 121.000000
      84 PROT    42         B       B       B       0.000000 181.000000
      85 PROT    43         P       P       P       0.000000 121.000000
      86 PROT    43         B       B       B       0.000000 181.000000
      87 PROT    44         P       P       P       0.000000 121.000000
      88 PROT    44         B       B       B       0.000000 181.000000
      89 PROT    45         P       P       P       0.000000 121.000000
      90 PROT    45         B       B       B       0.000000 181.000000
      91 PROT    46         P       P       P       0.000000 121.000000
      92 PROT    46         B       B       B       0.000000 181.000000
      93 PROT    47         P       P       P       0.000000 121.000000
      94 PROT    47         B       B       B       0.000000 181.000000
      95 PROT    48         P       P       P       0.000000 121.000000
      96 PROT    48         B       B       B       0.000000 181.000000
      97 PROT    49         P       P       P       0.000000 121.000000
      98 PROT    49         B       B       B       0.000000 181.000000
      99 PROT    50         P       P       P       0.000000 121.000000
     100 PROT    50         B       B       B       0.000000 181.000000
     101 PROT    51         P       P       P       0.000000 121.000000
     102 PROT    51         B       B       B       0.000000 181.000000
     103 PROT    52         P       P       P       0.000000 121.000000
     104 PROT    52         B       B       B       0.000000 181.000000
     105 PROT    53         P       P       P       0.000000 121.000000
     106 PROT    53         B       B       B       0.000000 181.000000
     107 PROT    54         P       P       P       0.000000 121.000000
     108 PROT    54         B       B       B       0.000000 181.000000
     109 PROT    55         P       P       P       0.000000 121.000000
     110 PROT    55         B       B       B       0.000000 181.000000
     111 PROT    56         P       P       P       0.000000 121.000000
     112 PROT    56         B       B       B       0.000000 181.000000
     113 PROT    57         P       P       P       0.000000 121.000000
     114 PROT    57         B       B       B       0.000000 181.000000
     115 PROT    58         P       P       P       0.000000 121.000000
     116 PROT    58         B       B       B       0.000000 181.000000
     117 PROT    59         P       P       P       0.000000 121.000000
     118 PROT    59         B       B       B       0.000000 181.000000
     119 PROT    60         P       P       P       0.000000 121.000000
     120 PROT    60         B       B       B       0.000000 181.000000
     121 PROT    61         P       P       P       0.000000 121.000000
     122 PROT    61         B       B       B       0.000000 181.000000
     123 PROT    62         P       P       P       0.000000 121.000000
     124 PROT    62         B       B       B       0.000000 181.000000
     125 PROT    63         P       P       P       0.000000 121.000000
     126 PROT    63         B       B       B       0.000000 181.000000
     127 PROT    64         P       P       P       0.000000 121.000000
     128 PROT    64         B       B       B       0.000000 181.000000
     129 PROT    65         P       P       P       0.000000 121.000000
     130 PROT    65         B       B       B       0.000000 181.000000
     131 PROT    66         P       P       P       0.000000 121.000000
     132 PROT    66         B       B       B       0.000000 181.000000
     133 PROT    67         P       P       P       0.000000 121.000000
     134 PROT    67         B       B       B       0.000000 181.000000
     135 PROT    68         P       P       P       0.000000 121.000000
     136 PROT    68         B       B       B       0.000000 181.000000
     137 PROT    69         P       P       P       0.000000 121.000000
     138 PROT    69         B       B       B       0.000000 181.000000
     139 PROT    70         P       P       P       0.000000 121.000000
     140 PROT    70         B       B       B       0.000000 181.000000

     208 !NBOND
     114     115       27      28       72      73       75      76
      71      73       79      81      116     117       56      57
     129     130       93      94       87      88       38      39
     129     131        2       3       83      85       95      97
      66      67       19      21      115     116       80      81
     126     127       50      51      123     125       39      41
     101     103      118     119       45      46       99     100
     137     139       15      17       52      53       64      65
      18      19       91      93      131     133       51      53
      54      55      132     133       48      49       31      33
      19      20       46      47       67      68       71      72
     117     119       22      23       41      42       44      45
      81      83      134     135       17      18       63      64
      97      98      111     112      127     128      139     140
      94      95       51      52       33      34      135     136
      11      13       67      69      122     123       13      14
      37      39       41      43       69      70       98      99
      20      21       28      29       49      50      119     120
      49      51       59      60      111     113      113     114
      99     101        5       7      131     132       86      87
     135     137       24      25       70      71       43      44
     105     106       26      27        9      10       74      75
      17      19       96      97       76      77       62      63
     115     117       89      90       12      13      127     129
      53      54      109     110        1       3       21      23
      58      59       65      67        7       9        1       2
      10      11      106     107      104     105       32      33
     107     109      125     126       15      16      120     121
     119     121      133     135       81      82      123     124
      78      79       82      83       65      66       40      41
      69      71       73      75        4       5       68      69
     101     102       30      31      117     118      112     113
     136     137       35      37       53      55       92      93
      43      45        3       4       21      22       83      84
      14      15      108     109      128     129       23      24
      29      31       45      47       89      91       88      89
     100     101       55      57       91      92       95      96
       6       7       34      35       36      37       31      32
      61      62      138     139       61      63      121     122
      42      43        7       8      121     123       16      17
       3       5        8       9       47      48      102     103
      57      58      137     138       90      91       60      61
     113     115       35      36       73      74      103     104
      57      59      107     108       13      15       77      78
       9      11      130     131      133     134       27      29
      85      86       39      40      105     107      124     125
      77      79       37      38       33      35      125     127
      11      12       63      65       85      87       25      27
      47      49       59      61       87      89       79      80
     109     111       29      30       23      25       55      56
      84      85       25      26       75      77        5       6
     103     105       97      99       93      95      110     111

     274 !NTHETA
      13      15      17       93      95      97       93      95      96
     132     133     134      103     105     106      131     133     135
     130     131     133      104     105     107       74      75      76
     135     137     139       20      21      23       46      47      48
     124     125     126       84      85      87       19      21      22
      43      45      46      123     125     126       33      35      37
      62      63      65       47      49      50      100     101     103
     119     121     122       64      65      67       88      89      91
      53      55      57       79      81      83      104     105     106
      14      15      17       91      93      95      121     123     124
      45      47      49       40      41      42      133     135     136
     121     123     125       74      75      77      118     119     121
      22      23      24      128     129     130       59      61      62
     115     117     118      115     117     119       27      29      30
      98      99     100       57      59      61       26      27      28
      81      83      85       12      13      15       35      37      38
      18      19      21       31      33      35       21      23      24
      23      25      27      129     131     132       34      35      37
      78      79      80       36      37      39       96      97      99
     114     115     117        1       3       4       90      91      92
      82      83      84      109     111     113       17      19      21
      60      61      62        3       5       7      112     113     115
      69      71      73      119     121     123       34      35      36
      99     101     103       97      99     101      123     125     127
      20      21      22       65      67      69      110     111     113
      90      91      93       95      97      98       44      45      47
      29      31      33       99     101     102       55      57      58
      31      33      34       30      31      33       35      37      39
       7       9      11       63      65      67      106     107     109
      75      77      79       60      61      63       66      67      69
     132     133     135       41      43      45       92      93      95
     125     127     128       71      73      75      124     125     127
      58      59      61        5       7       8       76      77      79
     105     107     109       22      23      25      138     139     140
      39      41      42       70      71      73        8       9      10
     134     135     137       15      17      19       38      39      40
      21      23      25       32      33      34       50      51      53
      68      69      71       11      13      15       49      51      53
      24      25      26       72      73      74       88      89      90
     122     123     125      129     131     133       16      17      18
     133     135     137        9      11      13       37      39      40
     135     137     138       42      43      44       61      63      64
      19      21      23      136     137     139      113     115     117
      53      55      56      120     121     122        1       3       5
     126     127     128       11      13      14       43      45      47
      86      87      88        6       7       9       95      97      99
      13      15      16       55      57      59        2       3       5
      73      75      77       69      71      72       44      45      46
      50      51      52       32      33      35       94      95      97
      52      53      54       68      69      70      108     109     110
      66      67      68       14      15      16       15      17      18
     126     127     129      113     115     116       83      85      86
     106     107     108      137     139     140       70      71      72
      61      63      65      108     109     111       51      53      54
      79      81      82       26      27      29       18      19      20
      45      47      48        3       5       6       76      77      78
      80      81      82      116     117     118       49      51      52
      97      99     100      136     137     138        6       7       8
      56      57      58        4       5       7       28      29      30
       7       9      10       89      91      92       77      79      81
      83      85      87      128     129     131       47      49      51
      48      49      51       30      31      32       51      53      55
      37      39      41       25      27      28      117     119     120
      10      11      13       78      79      81        4       5       6
      62      63      64      101     103     104      111     113     114
     102     103     105       57      59      60       39      41      43
      28      29      31       85      87      89       33      35      36
     130     131     132       17      19      20       84      85      86
      92      93      94       87      89      90       40      41      43
     111     113     115       71      73      74        5       7       9
     101     103     105       29      31      32       87      89      91
     131     133     134       48      49      50       73      75      76
      94      95      96       85      87      88      120     121     123
     118     119     120      102     103     104       82      83      85
      58      59      60      100     101     102      125     127     129
      64      65      66       65      67      68       91      93      94
       9      11      12       67      69      71      116     117     119
      41      43      44       16      17      19      103     105     107
       8       9      11       98      99     101      127     129     131
      63      65      66       46      47      49       54      55      57
      56      57      59       75      77      78       52      53      55
     105     107     108       72      73      75      122     123     124
      81      83      84      112     113     114       38      39      41
      12      13      14       67      69      70       89      91      93
     107     109     111       96      97      98       77      79      80
      27      29      31      117     119     121       36      37      38
      23      25      26      109     111     112      134     135     136
     114     115     116      110     111     112      127     129     130
      54      55      56       10      11      12      107     109     110
      24      25      27       42      43      45       59      61      63
      80      81      83       86      87      89       25      27      29
       2       3       4 

     204 !NPHI
      39      41      43      45       53      55      57      59
      92      91      93      94       40      39      41      42
      52      51      53      54       58      57      59      60
     134     135     137     138       76      77      79      80
      13      15      17      19       24      25      27      28
     108     107     109     110       67      69      71      73
      47      49      51      53       42      41      43      44
     106     107     109     110      120     119     121     122
     138     137     139     140       50      49      51      52
       3       5       7       9       48      49      51      52
      34      35      37      38       72      71      73      74
      38      37      39      40       84      85      87      88
      50      51      53      54       56      57      59      60
      16      17      19      20       55      57      59      61
      97      99     101     103      130     129     131     132
      28      27      29      30      136     137     139     140
      63      65      67      69       54      55      57      58
     134     133     135     136       96      95      97      98
       4       3       5       6       30      31      33      34
      57      59      61      63       69      71      73      75
     111     113     115     117      127     129     131     133
      32      31      33      34      100      99     101     102
      18      17      19      20      117     119     121     123
      26      27      29      30       87      89      91      93
       2       1       3       4       12      13      15      16
     120     121     123     124       42      43      45      46
      38      39      41      42      122     123     125     126
      61      63      65      67       54      53      55      56
     136     135     137     138       46      47      49      50
     131     133     135     137       74      75      77      78
      92      93      95      96      124     123     125     126
      68      67      69      70       64      63      65      66
      24      23      25      26        1       3       5       7
      73      75      77      79       62      61      63      64
      75      77      79      81       79      81      83      85
      35      37      39      41      106     105     107     108
     110     109     111     112       89      91      93      95
      44      45      47      48      114     115     117     118
      94      95      97      98       27      29      31      33
      37      39      41      43       49      51      53      55
     108     109     111     112       82      81      83      84
     132     131     133     134       45      47      49      51
      10       9      11      12       84      83      85      86
       6       7       9      10       99     101     103     105
     122     121     123     124      116     117     119     120
      77      79      81      83       80      79      81      82
      25      27      29      31       60      59      61      62
      22      21      23      24      123     125     127     129
      88      89      91      92       12      11      13      14
      15      17      19      21       14      15      17      18
     112     111     113     114      102     103     105     106
     110     111     113     114       76      75      77      78
      65      67      69      71      121     123     125     127
       6       5       7       8       41      43      45      47
      80      81      83      84        4       5       7       8
     124     125     127     128       58      59      61      62
     102     101     103     104       98      99     101     102
      21      23      25      27       90      91      93      94
      60      61      63      64       70      71      73      74
      19      21      23      25       40      41      43      44
      52      53      55      56       33      35      37      39
      86      85      87      88      105     107     109     111
     126     127     129     130      132     133     135     136
      59      61      63      65       36      35      37      38
     119     121     123     125      128     127     129     130
      96      97      99     100       91      93      95      97
      98      97      99     100      128     129     131     132
      74      73      75      76       11      13      15      17
      20      21      23      24       64      65      67      68
      43      45      47      49       44      43      45      46
     100     101     103     104        5       7       9      11
      28      29      31      32        8       9      11      12
      51      53      55      57       82      83      85      86
      68      69      71      72      115     117     119     121
       2       3       5       6       90      89      91      92
      71      73      75      77      116     115     117     118
     118     117     119     120      130     131     133     134
     125     127     129     131       66      65      67      68
      10      11      13      14       93      95      97      99
      70      69      71      72       46      45      47      48
      95      97      99     101       78      79      81      82
     126     125     127     128       30      29      31      32
      83      85      87      89      103     105     107     109
      48      47      49      50       17      19      21      23
     101     103     105     107       86      87      89      90
      29      31      33      35       32      33      35      36
     133     135     137     139      104     103     105     106
       8       7       9      10       26      25      27      28
      78      77      79      80       22      23      25      26
      85      87      89      91       81      83      85      87
      14      13      15      16      129     131     133     135
      18      19      21      22       66      67      69      70
      62      63      65      66       94      93      95      96
      34      33      35      36       36      37      39      40
     112     113     115     116        9      11      13      15
     107     109     111     113      104     105     107     108
      56      55      57      58      114     113     115     116
      31      33      35      37       20      19      21      22
      16      15      17      18       23      25      27      29
     118     119     121     122      109     111     113     115
       7       9      11      13       88      87      89      90
      72      73      75      76      113     115     117     119

       0 !NIMPHI


       0 !NDON: donors



       0 !NACC: acceptors



       0 !NNB

      0       0       0       0       0       0       0       0
      0       0       0       0       0       0       0       0
      0       0       0       0       0       0       0       0
      0       0       0       0       0       0       0       0
      0       0       0       0       0       0       0       0
      0       0       0       0       0       0       0       0
      0       0       0       0       0       0       0       0
      0       0       0       0       0       0       0       0
      0       0       0       0       0       0       0       0
      0       0       0       0       0       0       0       0
      0       0       0       0       0       0       0       0
      0       0       0       0       0       0       0       0
      0       0       0       0       0       0       0       0
      0       0       0       0       0       0       0       0
      0       0       0       0       0       0       0       0
      0       0       0       0       0       0       0       0
      0       0       0       0       0       0       0       0
      0      0      0      0

       1       0 !NGRP

