PSF NAMD

       0 !NTITLE

     420 !NATOM
       1 APRO    1          A       A       X_g_con 0.000000 120.000000
       2 APRO    2          A       A       X       0.000000 120.000000
       3 APRO    3          A       A       X       0.000000 120.000000
       4 APRO    4          A       A       X       0.000000 120.000000
       5 APRO    5          A       A       X       0.000000 120.000000
       6 APRO    6          A       A       X       0.000000 120.000000
       7 APRO    7          A       A       X       0.000000 120.000000
       8 APRO    8          A       A       X       0.000000 120.000000
       9 APRO    9          A       A       X       0.000000 120.000000
      10 APRO    10         A       A       X       0.000000 120.000000
      11 APRO    11         A       A       X       0.000000 120.000000
      12 APRO    12         A       A       X       0.000000 120.000000
      13 APRO    13         A       A       X       0.000000 120.000000
      14 APRO    14         A       A       X       0.000000 120.000000
      15 APRO    15         A       A       X       0.000000 120.000000
      16 APRO    16         A       A       X       0.000000 120.000000
      17 APRO    17         A       A       X       0.000000 120.000000
      18 APRO    18         A       A       X       0.000000 120.000000
      19 APRO    19         A       A       X       0.000000 120.000000
      20 APRO    20         A       A       X       0.000000 120.000000
      21 APRO    21         A       A       X       0.000000 120.000000
      22 APRO    22         A       A       X       0.000000 120.000000
      23 APRO    23         A       A       X       0.000000 120.000000
      24 APRO    24         A       A       X       0.000000 120.000000
      25 APRO    25         A       A       X       0.000000 120.000000
      26 APRO    26         A       A       X       0.000000 120.000000
      27 APRO    27         A       A       X       0.000000 120.000000
      28 APRO    28         A       A       X       0.000000 120.000000
      29 APRO    29         A       A       X       0.000000 120.000000
      30 APRO    30         A       A       X       0.000000 120.000000
      31 APRO    31         A       A       X       0.000000 120.000000
      32 APRO    32         A       A       X       0.000000 120.000000
      33 APRO    33         A       A       X       0.000000 120.000000
      34 APRO    34         A       A       X       0.000000 120.000000
      35 APRO    35         A       A       X       0.000000 120.000000
      36 APRO    36         A       A       X       0.000000 120.000000
      37 APRO    37         A       A       X       0.000000 120.000000
      38 APRO    38         A       A       X       0.000000 120.000000
      39 APRO    39         A       A       X       0.000000 120.000000
      40 APRO    40         A       A       X       0.000000 120.000000
      41 APRO    41         A       A       X       0.000000 120.000000
      42 APRO    42         A       A       X       0.000000 120.000000
      43 APRO    43         A       A       X       0.000000 120.000000
      44 APRO    44         A       A       X       0.000000 120.000000
      45 APRO    45         A       A       X       0.000000 120.000000
      46 APRO    46         A       A       X       0.000000 120.000000
      47 APRO    47         A       A       X       0.000000 120.000000
      48 APRO    48         A       A       X       0.000000 120.000000
      49 APRO    49         A       A       X       0.000000 120.000000
      50 APRO    50         A       A       X       0.000000 120.000000
      51 APRO    51         A       A       X       0.000000 120.000000
      52 APRO    52         A       A       X       0.000000 120.000000
      53 APRO    53         A       A       X       0.000000 120.000000
      54 APRO    54         A       A       X       0.000000 120.000000
      55 APRO    55         A       A       X       0.000000 120.000000
      56 APRO    56         A       A       X       0.000000 120.000000
      57 APRO    57         A       A       X       0.000000 120.000000
      58 APRO    58         A       A       X       0.000000 120.000000
      59 APRO    59         A       A       X       0.000000 120.000000
      60 APRO    60         A       A       X       0.000000 120.000000
      61 APRO    61         A       A       X       0.000000 120.000000
      62 APRO    62         A       A       X       0.000000 120.000000
      63 APRO    63         A       A       X       0.000000 120.000000
      64 APRO    64         A       A       X       0.000000 120.000000
      65 APRO    65         A       A       X       0.000000 120.000000
      66 APRO    66         A       A       X       0.000000 120.000000
      67 APRO    67         A       A       X       0.000000 120.000000
      68 APRO    68         A       A       X       0.000000 120.000000
      69 APRO    69         A       A       X       0.000000 120.000000
      70 APRO    70         A       A       X_g_con 0.000000 120.000000
      71 BPRO    1          ALA     A       ALA2_g_ 0.000000 71.080000
      72 BPRO    2          GLY     G       GLY2    0.000000 57.050000
      73 BPRO    3          ALA     A       ALA2    0.000000 71.080000
      74 BPRO    4          GLY     G       GLY2    0.000000 57.050000
      75 BPRO    5          ALA     A       ALA2    0.000000 71.080000
      76 BPRO    6          GLY     G       GLY2    0.000000 57.050000
      77 BPRO    7          ALA     A       ALA2    0.000000 71.080000
      78 BPRO    8          GLY     G       GLY2    0.000000 57.050000
      79 BPRO    9          ALA     A       ALA2    0.000000 71.080000
      80 BPRO    10         GLY     G       GLY2    0.000000 57.050000
      81 BPRO    11         ALA     A       ALA2    0.000000 71.080000
      82 BPRO    12         GLY     G       GLY2    0.000000 57.050000
      83 BPRO    13         ALA     A       ALA2    0.000000 71.080000
      84 BPRO    14         GLY     G       GLY2    0.000000 57.050000
      85 BPRO    15         ALA     A       ALA2    0.000000 71.080000
      86 BPRO    16         GLY     G       GLY2    0.000000 57.050000
      87 BPRO    17         ALA     A       ALA2    0.000000 71.080000
      88 BPRO    18         GLY     G       GLY2    0.000000 57.050000
      89 BPRO    19         ALA     A       ALA2    0.000000 71.080000
      90 BPRO    20         GLY     G       GLY2    0.000000 57.050000
      91 BPRO    21         ALA     A       ALA2    0.000000 71.080000
      92 BPRO    22         GLY     G       GLY2    0.000000 57.050000
      93 BPRO    23         ALA     A       ALA2    0.000000 71.080000
      94 BPRO    24         GLY     G       GLY2    0.000000 57.050000
      95 BPRO    25         ALA     A       ALA2    0.000000 71.080000
      96 BPRO    26         GLY     G       GLY2    0.000000 57.050000
      97 BPRO    27         ALA     A       ALA2    0.000000 71.080000
      98 BPRO    28         GLY     G       GLY2    0.000000 57.050000
      99 BPRO    29         ALA     A       ALA2    0.000000 71.080000
     100 BPRO    30         GLY     G       GLY2    0.000000 57.050000
     101 BPRO    31         ALA     A       ALA2    0.000000 71.080000
     102 BPRO    32         GLY     G       GLY2    0.000000 57.050000
     103 BPRO    33         ALA     A       ALA2    0.000000 71.080000
     104 BPRO    34         GLY     G       GLY2    0.000000 57.050000
     105 BPRO    35         ALA     A       ALA2    0.000000 71.080000
     106 BPRO    36         GLY     G       GLY2    0.000000 57.050000
     107 BPRO    37         ALA     A       ALA2    0.000000 71.080000
     108 BPRO    38         GLY     G       GLY2    0.000000 57.050000
     109 BPRO    39         ALA     A       ALA2    0.000000 71.080000
     110 BPRO    40         GLY     G       GLY2    0.000000 57.050000
     111 BPRO    41         ALA     A       ALA2    0.000000 71.080000
     112 BPRO    42         GLY     G       GLY2    0.000000 57.050000
     113 BPRO    43         ALA     A       ALA2    0.000000 71.080000
     114 BPRO    44         GLY     G       GLY2    0.000000 57.050000
     115 BPRO    45         ALA     A       ALA2    0.000000 71.080000
     116 BPRO    46         GLY     G       GLY2    0.000000 57.050000
     117 BPRO    47         ALA     A       ALA2    0.000000 71.080000
     118 BPRO    48         GLY     G       GLY2    0.000000 57.050000
     119 BPRO    49         ALA     A       ALA2    0.000000 71.080000
     120 BPRO    50         GLY     G       GLY2    0.000000 57.050000
     121 BPRO    51         ALA     A       ALA2    0.000000 71.080000
     122 BPRO    52         GLY     G       GLY2    0.000000 57.050000
     123 BPRO    53         ALA     A       ALA2    0.000000 71.080000
     124 BPRO    54         GLY     G       GLY2    0.000000 57.050000
     125 BPRO    55         ALA     A       ALA2    0.000000 71.080000
     126 BPRO    56         GLY     G       GLY2    0.000000 57.050000
     127 BPRO    57         ALA     A       ALA2    0.000000 71.080000
     128 BPRO    58         GLY     G       GLY2    0.000000 57.050000
     129 BPRO    59         ALA     A       ALA2    0.000000 71.080000
     130 BPRO    60         GLY     G       GLY2    0.000000 57.050000
     131 BPRO    61         ALA     A       ALA2    0.000000 71.080000
     132 BPRO    62         GLY     G       GLY2    0.000000 57.050000
     133 BPRO    63         ALA     A       ALA2    0.000000 71.080000
     134 BPRO    64         GLY     G       GLY2    0.000000 57.050000
     135 BPRO    65         ALA     A       ALA2    0.000000 71.080000
     136 BPRO    66         GLY     G       GLY2    0.000000 57.050000
     137 BPRO    67         ALA     A       ALA2    0.000000 71.080000
     138 BPRO    68         GLY     G       GLY2    0.000000 57.050000
     139 BPRO    69         ALA     A       ALA2    0.000000 71.080000
     140 BPRO    70         GLY     G       GLY2_g_ 0.000000 57.050000
     141 CPRO    1          ALA     AIDP    ALAIDP1 0.000000 71.080000
     142 CPRO    2          GLY     GIDP    GLYIDP1 0.000000 57.050000
     143 CPRO    3          ALA     AIDP    ALAIDP1 0.000000 71.080000
     144 CPRO    4          GLY     GIDP    GLYIDP1 0.000000 57.050000
     145 CPRO    5          ALA     AIDP    ALAIDP1 0.000000 71.080000
     146 CPRO    6          GLY     GIDP    GLYIDP1 0.000000 57.050000
     147 CPRO    7          ALA     AIDP    ALAIDP1 0.000000 71.080000
     148 CPRO    8          GLY     GIDP    GLYIDP1 0.000000 57.050000
     149 CPRO    9          ALA     AIDP    ALAIDP1 0.000000 71.080000
     150 CPRO    10         GLY     GIDP    GLYIDP1 0.000000 57.050000
     151 CPRO    11         ALA     AIDP    ALAIDP1 0.000000 71.080000
     152 CPRO    12         GLY     GIDP    GLYIDP1 0.000000 57.050000
     153 CPRO    13         ALA     AIDP    ALAIDP1 0.000000 71.080000
     154 CPRO    14         GLY     GIDP    GLYIDP1 0.000000 57.050000
     155 CPRO    15         ALA     AIDP    ALAIDP1 0.000000 71.080000
     156 CPRO    16         GLY     GIDP    GLYIDP1 0.000000 57.050000
     157 CPRO    17         ALA     AIDP    ALAIDP1 0.000000 71.080000
     158 CPRO    18         GLY     GIDP    GLYIDP1 0.000000 57.050000
     159 CPRO    19         ALA     AIDP    ALAIDP1 0.000000 71.080000
     160 CPRO    20         GLY     GIDP    GLYIDP1 0.000000 57.050000
     161 CPRO    21         ALA     AIDP    ALAIDP1 0.000000 71.080000
     162 CPRO    22         GLY     GIDP    GLYIDP1 0.000000 57.050000
     163 CPRO    23         ALA     AIDP    ALAIDP1 0.000000 71.080000
     164 CPRO    24         GLY     GIDP    GLYIDP1 0.000000 57.050000
     165 CPRO    25         ALA     AIDP    ALAIDP1 0.000000 71.080000
     166 CPRO    26         GLY     GIDP    GLYIDP1 0.000000 57.050000
     167 CPRO    27         ALA     AIDP    ALAIDP1 0.000000 71.080000
     168 CPRO    28         GLY     GIDP    GLYIDP1 0.000000 57.050000
     169 CPRO    29         ALA     AIDP    ALAIDP1 0.000000 71.080000
     170 CPRO    30         GLY     GIDP    GLYIDP1 0.000000 57.050000
     171 CPRO    31         ALA     AIDP    ALAIDP1 0.000000 71.080000
     172 CPRO    32         GLY     GIDP    GLYIDP1 0.000000 57.050000
     173 CPRO    33         ALA     AIDP    ALAIDP1 0.000000 71.080000
     174 CPRO    34         GLY     GIDP    GLYIDP1 0.000000 57.050000
     175 CPRO    35         ALA     AIDP    ALAIDP1 0.000000 71.080000
     176 CPRO    36         GLY     GIDP    GLYIDP1 0.000000 57.050000
     177 CPRO    37         ALA     AIDP    ALAIDP1 0.000000 71.080000
     178 CPRO    38         GLY     GIDP    GLYIDP1 0.000000 57.050000
     179 CPRO    39         ALA     AIDP    ALAIDP1 0.000000 71.080000
     180 CPRO    40         GLY     GIDP    GLYIDP1 0.000000 57.050000
     181 CPRO    41         ALA     AIDP    ALAIDP1 0.000000 71.080000
     182 CPRO    42         GLY     GIDP    GLYIDP1 0.000000 57.050000
     183 CPRO    43         ALA     AIDP    ALAIDP1 0.000000 71.080000
     184 CPRO    44         GLY     GIDP    GLYIDP1 0.000000 57.050000
     185 CPRO    45         ALA     AIDP    ALAIDP1 0.000000 71.080000
     186 CPRO    46         GLY     GIDP    GLYIDP1 0.000000 57.050000
     187 CPRO    47         ALA     AIDP    ALAIDP1 0.000000 71.080000
     188 CPRO    48         GLY     GIDP    GLYIDP1 0.000000 57.050000
     189 CPRO    49         ALA     AIDP    ALAIDP1 0.000000 71.080000
     190 CPRO    50         GLY     GIDP    GLYIDP1 0.000000 57.050000
     191 CPRO    51         ALA     AIDP    ALAIDP1 0.000000 71.080000
     192 CPRO    52         GLY     GIDP    GLYIDP1 0.000000 57.050000
     193 CPRO    53         ALA     AIDP    ALAIDP1 0.000000 71.080000
     194 CPRO    54         GLY     GIDP    GLYIDP1 0.000000 57.050000
     195 CPRO    55         ALA     AIDP    ALAIDP1 0.000000 71.080000
     196 CPRO    56         GLY     GIDP    GLYIDP1 0.000000 57.050000
     197 CPRO    57         ALA     AIDP    ALAIDP1 0.000000 71.080000
     198 CPRO    58         GLY     GIDP    GLYIDP1 0.000000 57.050000
     199 CPRO    59         ALA     AIDP    ALAIDP1 0.000000 71.080000
     200 CPRO    60         GLY     GIDP    GLYIDP1 0.000000 57.050000
     201 CPRO    61         ALA     AIDP    ALAIDP1 0.000000 71.080000
     202 CPRO    62         GLY     GIDP    GLYIDP1 0.000000 57.050000
     203 CPRO    63         ALA     AIDP    ALAIDP1 0.000000 71.080000
     204 CPRO    64         GLY     GIDP    GLYIDP1 0.000000 57.050000
     205 CPRO    65         ALA     AIDP    ALAIDP1 0.000000 71.080000
     206 CPRO    66         GLY     GIDP    GLYIDP1 0.000000 57.050000
     207 CPRO    67         ALA     AIDP    ALAIDP1 0.000000 71.080000
     208 CPRO    68         GLY     GIDP    GLYIDP1 0.000000 57.050000
     209 CPRO    69         ALA     AIDP    ALAIDP1 0.000000 71.080000
     210 CPRO    70         GLY     GIDP    GLYIDP1 0.000000 57.050000
     211 DPRO    1          A       A       ALAv1.1 0.000000 71.070000
     212 DPRO    2          G       G       GLYv1.1 0.000000 57.050000
     213 DPRO    3          A       A       ALAv1.1 0.000000 71.070000
     214 DPRO    4          G       G       GLYv1.1 0.000000 57.050000
     215 DPRO    5          A       A       ALAv1.1 0.000000 71.070000
     216 DPRO    6          G       G       GLYv1.1 0.000000 57.050000
     217 DPRO    7          A       A       ALAv1.1 0.000000 71.070000
     218 DPRO    8          G       G       GLYv1.1 0.000000 57.050000
     219 DPRO    9          A       A       ALAv1.1 0.000000 71.070000
     220 DPRO    10         G       G       GLYv1.1 0.000000 57.050000
     221 DPRO    11         A       A       ALAv1.1 0.000000 71.070000
     222 DPRO    12         G       G       GLYv1.1 0.000000 57.050000
     223 DPRO    13         A       A       ALAv1.1 0.000000 71.070000
     224 DPRO    14         G       G       GLYv1.1 0.000000 57.050000
     225 DPRO    15         A       A       ALAv1.1 0.000000 71.070000
     226 DPRO    16         G       G       GLYv1.1 0.000000 57.050000
     227 DPRO    17         A       A       ALAv1.1 0.000000 71.070000
     228 DPRO    18         G       G       GLYv1.1 0.000000 57.050000
     229 DPRO    19         A       A       ALAv1.1 0.000000 71.070000
     230 DPRO    20         G       G       GLYv1.1 0.000000 57.050000
     231 DPRO    21         A       A       ALAv1.1 0.000000 71.070000
     232 DPRO    22         G       G       GLYv1.1 0.000000 57.050000
     233 DPRO    23         A       A       ALAv1.1 0.000000 71.070000
     234 DPRO    24         G       G       GLYv1.1 0.000000 57.050000
     235 DPRO    25         A       A       ALAv1.1 0.000000 71.070000
     236 DPRO    26         G       G       GLYv1.1 0.000000 57.050000
     237 DPRO    27         A       A       ALAv1.1 0.000000 71.070000
     238 DPRO    28         G       G       GLYv1.1 0.000000 57.050000
     239 DPRO    29         A       A       ALAv1.1 0.000000 71.070000
     240 DPRO    30         G       G       GLYv1.1 0.000000 57.050000
     241 DPRO    31         A       A       ALAv1.1 0.000000 71.070000
     242 DPRO    32         G       G       GLYv1.1 0.000000 57.050000
     243 DPRO    33         A       A       ALAv1.1 0.000000 71.070000
     244 DPRO    34         G       G       GLYv1.1 0.000000 57.050000
     245 DPRO    35         A       A       ALAv1.1 0.000000 71.070000
     246 DPRO    36         G       G       GLYv1.1 0.000000 57.050000
     247 DPRO    37         A       A       ALAv1.1 0.000000 71.070000
     248 DPRO    38         G       G       GLYv1.1 0.000000 57.050000
     249 DPRO    39         A       A       ALAv1.1 0.000000 71.070000
     250 DPRO    40         G       G       GLYv1.1 0.000000 57.050000
     251 DPRO    41         A       A       ALAv1.1 0.000000 71.070000
     252 DPRO    42         G       G       GLYv1.1 0.000000 57.050000
     253 DPRO    43         A       A       ALAv1.1 0.000000 71.070000
     254 DPRO    44         G       G       GLYv1.1 0.000000 57.050000
     255 DPRO    45         A       A       ALAv1.1 0.000000 71.070000
     256 DPRO    46         G       G       GLYv1.1 0.000000 57.050000
     257 DPRO    47         A       A       ALAv1.1 0.000000 71.070000
     258 DPRO    48         G       G       GLYv1.1 0.000000 57.050000
     259 DPRO    49         A       A       ALAv1.1 0.000000 71.070000
     260 DPRO    50         G       G       GLYv1.1 0.000000 57.050000
     261 DPRO    51         A       A       ALAv1.1 0.000000 71.070000
     262 DPRO    52         G       G       GLYv1.1 0.000000 57.050000
     263 DPRO    53         A       A       ALAv1.1 0.000000 71.070000
     264 DPRO    54         G       G       GLYv1.1 0.000000 57.050000
     265 DPRO    55         A       A       ALAv1.1 0.000000 71.070000
     266 DPRO    56         G       G       GLYv1.1 0.000000 57.050000
     267 DPRO    57         A       A       ALAv1.1 0.000000 71.070000
     268 DPRO    58         G       G       GLYv1.1 0.000000 57.050000
     269 DPRO    59         A       A       ALAv1.1 0.000000 71.070000
     270 DPRO    60         G       G       GLYv1.1 0.000000 57.050000
     271 DPRO    61         A       A       ALAv1.1 0.000000 71.070000
     272 DPRO    62         G       G       GLYv1.1 0.000000 57.050000
     273 DPRO    63         A       A       ALAv1.1 0.000000 71.070000
     274 DPRO    64         G       G       GLYv1.1 0.000000 57.050000
     275 DPRO    65         A       A       ALAv1.1 0.000000 71.070000
     276 DPRO    66         G       G       GLYv1.1 0.000000 57.050000
     277 DPRO    67         A       A       ALAv1.1 0.000000 71.070000
     278 DPRO    68         G       G       GLYv1.1 0.000000 57.050000
     279 DPRO    69         A       A       ALAv1.1 0.000000 71.070000
     280 DPRO    70         G       G       GLYv1.1 0.000000 57.050000
     281 ADNA    1          P       P       P_g_con 0.000000 121.000000
     282 ADNA    1          B       B       B       0.000000 181.000000
     283 ADNA    2          P       P       P       0.000000 121.000000
     284 ADNA    2          B       B       B       0.000000 181.000000
     285 ADNA    3          P       P       P       0.000000 121.000000
     286 ADNA    3          B       B       B       0.000000 181.000000
     287 ADNA    4          P       P       P       0.000000 121.000000
     288 ADNA    4          B       B       B       0.000000 181.000000
     289 ADNA    5          P       P       P       0.000000 121.000000
     290 ADNA    5          B       B       B       0.000000 181.000000
     291 ADNA    6          P       P       P       0.000000 121.000000
     292 ADNA    6          B       B       B       0.000000 181.000000
     293 ADNA    7          P       P       P       0.000000 121.000000
     294 ADNA    7          B       B       B       0.000000 181.000000
     295 ADNA    8          P       P       P       0.000000 121.000000
     296 ADNA    8          B       B       B       0.000000 181.000000
     297 ADNA    9          P       P       P       0.000000 121.000000
     298 ADNA    9          B       B       B       0.000000 181.000000
     299 ADNA    10         P       P       P       0.000000 121.000000
     300 ADNA    10         B       B       B       0.000000 181.000000
     301 ADNA    11         P       P       P       0.000000 121.000000
     302 ADNA    11         B       B       B       0.000000 181.000000
     303 ADNA    12         P       P       P       0.000000 121.000000
     304 ADNA    12         B       B       B       0.000000 181.000000
     305 ADNA    13         P       P       P       0.000000 121.000000
     306 ADNA    13         B       B       B       0.000000 181.000000
     307 ADNA    14         P       P       P       0.000000 121.000000
     308 ADNA    14         B       B       B       0.000000 181.000000
     309 ADNA    15         P       P       P       0.000000 121.000000
     310 ADNA    15         B       B       B       0.000000 181.000000
     311 ADNA    16         P       P       P       0.000000 121.000000
     312 ADNA    16         B       B       B       0.000000 181.000000
     313 ADNA    17         P       P       P       0.000000 121.000000
     314 ADNA    17         B       B       B       0.000000 181.000000
     315 ADNA    18         P       P       P       0.000000 121.000000
     316 ADNA    18         B       B       B       0.000000 181.000000
     317 ADNA    19         P       P       P       0.000000 121.000000
     318 ADNA    19         B       B       B       0.000000 181.000000
     319 ADNA    20         P       P       P       0.000000 121.000000
     320 ADNA    20         B       B       B       0.000000 181.000000
     321 ADNA    21         P       P       P       0.000000 121.000000
     322 ADNA    21         B       B       B       0.000000 181.000000
     323 ADNA    22         P       P       P       0.000000 121.000000
     324 ADNA    22         B       B       B       0.000000 181.000000
     325 ADNA    23         P       P       P       0.000000 121.000000
     326 ADNA    23         B       B       B       0.000000 181.000000
     327 ADNA    24         P       P       P       0.000000 121.000000
     328 ADNA    24         B       B       B       0.000000 181.000000
     329 ADNA    25         P       P       P       0.000000 121.000000
     330 ADNA    25         B       B       B       0.000000 181.000000
     331 ADNA    26         P       P       P       0.000000 121.000000
     332 ADNA    26         B       B       B       0.000000 181.000000
     333 ADNA    27         P       P       P       0.000000 121.000000
     334 ADNA    27         B       B       B       0.000000 181.000000
     335 ADNA    28         P       P       P       0.000000 121.000000
     336 ADNA    28         B       B       B       0.000000 181.000000
     337 ADNA    29         P       P       P       0.000000 121.000000
     338 ADNA    29         B       B       B       0.000000 181.000000
     339 ADNA    30         P       P       P       0.000000 121.000000
     340 ADNA    30         B       B       B       0.000000 181.000000
     341 ADNA    31         P       P       P       0.000000 121.000000
     342 ADNA    31         B       B       B       0.000000 181.000000
     343 ADNA    32         P       P       P       0.000000 121.000000
     344 ADNA    32         B       B       B       0.000000 181.000000
     345 ADNA    33         P       P       P       0.000000 121.000000
     346 ADNA    33         B       B       B       0.000000 181.000000
     347 ADNA    34         P       P       P       0.000000 121.000000
     348 ADNA    34         B       B       B       0.000000 181.000000
     349 ADNA    35         P       P       P       0.000000 121.000000
     350 ADNA    35         B       B       B       0.000000 181.000000
     351 ADNA    36         P       P       P       0.000000 121.000000
     352 ADNA    36         B       B       B       0.000000 181.000000
     353 ADNA    37         P       P       P       0.000000 121.000000
     354 ADNA    37         B       B       B       0.000000 181.000000
     355 ADNA    38         P       P       P       0.000000 121.000000
     356 ADNA    38         B       B       B       0.000000 181.000000
     357 ADNA    39         P       P       P       0.000000 121.000000
     358 ADNA    39         B       B       B       0.000000 181.000000
     359 ADNA    40         P       P       P       0.000000 121.000000
     360 ADNA    40         B       B       B       0.000000 181.000000
     361 ADNA    41         P       P       P       0.000000 121.000000
     362 ADNA    41         B       B       B       0.000000 181.000000
     363 ADNA    42         P       P       P       0.000000 121.000000
     364 ADNA    42         B       B       B       0.000000 181.000000
     365 ADNA    43         P       P       P       0.000000 121.000000
     366 ADNA    43         B       B       B       0.000000 181.000000
     367 ADNA    44         P       P       P       0.000000 121.000000
     368 ADNA    44         B       B       B       0.000000 181.000000
     369 ADNA    45         P       P       P       0.000000 121.000000
     370 ADNA    45         B       B       B       0.000000 181.000000
     371 ADNA    46         P       P       P       0.000000 121.000000
     372 ADNA    46         B       B       B       0.000000 181.000000
     373 ADNA    47         P       P       P       0.000000 121.000000
     374 ADNA    47         B       B       B       0.000000 181.000000
     375 ADNA    48         P       P       P       0.000000 121.000000
     376 ADNA    48         B       B       B       0.000000 181.000000
     377 ADNA    49         P       P       P       0.000000 121.000000
     378 ADNA    49         B       B       B       0.000000 181.000000
     379 ADNA    50         P       P       P       0.000000 121.000000
     380 ADNA    50         B       B       B       0.000000 181.000000
     381 ADNA    51         P       P       P       0.000000 121.000000
     382 ADNA    51         B       B       B       0.000000 181.000000
     383 ADNA    52         P       P       P       0.000000 121.000000
     384 ADNA    52         B       B       B       0.000000 181.000000
     385 ADNA    53         P       P       P       0.000000 121.000000
     386 ADNA    53         B       B       B       0.000000 181.000000
     387 ADNA    54         P       P       P       0.000000 121.000000
     388 ADNA    54         B       B       B       0.000000 181.000000
     389 ADNA    55         P       P       P       0.000000 121.000000
     390 ADNA    55         B       B       B       0.000000 181.000000
     391 ADNA    56         P       P       P       0.000000 121.000000
     392 ADNA    56         B       B       B       0.000000 181.000000
     393 ADNA    57         P       P       P       0.000000 121.000000
     394 ADNA    57         B       B       B       0.000000 181.000000
     395 ADNA    58         P       P       P       0.000000 121.000000
     396 ADNA    58         B       B       B       0.000000 181.000000
     397 ADNA    59         P       P       P       0.000000 121.000000
     398 ADNA    59         B       B       B       0.000000 181.000000
     399 ADNA    60         P       P       P       0.000000 121.000000
     400 ADNA    60         B       B       B       0.000000 181.000000
     401 ADNA    61         P       P       P       0.000000 121.000000
     402 ADNA    61         B       B       B       0.000000 181.000000
     403 ADNA    62         P       P       P       0.000000 121.000000
     404 ADNA    62         B       B       B       0.000000 181.000000
     405 ADNA    63         P       P       P       0.000000 121.000000
     406 ADNA    63         B       B       B       0.000000 181.000000
     407 ADNA    64         P       P       P       0.000000 121.000000
     408 ADNA    64         B       B       B       0.000000 181.000000
     409 ADNA    65         P       P       P       0.000000 121.000000
     410 ADNA    65         B       B       B       0.000000 181.000000
     411 ADNA    66         P       P       P       0.000000 121.000000
     412 ADNA    66         B       B       B       0.000000 181.000000
     413 ADNA    67         P       P       P       0.000000 121.000000
     414 ADNA    67         B       B       B       0.000000 181.000000
     415 ADNA    68         P       P       P       0.000000 121.000000
     416 ADNA    68         B       B       B       0.000000 181.000000
     417 ADNA    69         P       P       P       0.000000 121.000000
     418 ADNA    69         B       B       B       0.000000 181.000000
     419 ADNA    70         P       P       P_g_con 0.000000 121.000000
     420 ADNA    70         B       B       B       0.000000 181.000000

     484 !NBOND
     307     308      359     361       75      76       80      81
     110     111      375     377      238     239      120     121
     130     131      222     223      139     140      330     331
     403     405      319     321      246     247       29      30
     332     333      111     112      331     333      131     132
     218     219      235     236      311     313      326     327
     100     101      272     273      209     210      297     298
     198     199       71      72       47      48      407     408
     212     213      415     416      317     319      137     138
      66      67      308     309      128     129      126     127
      99     100      329     331      391     393      257     258
      79      80      250     251       14      15      231     232
     379     381      233     234      220     221      289     290
     226     227      255     256      297     299      133     134
     342     343      356     357      376     377      369     370
     407     409      275     276      287     289      150     151
     290     291      361     362       60      61      362     363
     102     103      266     267      320     321      160     161
     284     285      145     146      381     382      397     398
     237     238      180     181      392     393        8       9
     153     154      301     302      388     389      369     371
     161     162      368     369      335     337      371     372
     197     198       53      54      125     126      286     287
     314     315      170     171      245     246      283     285
     382     383       40      41      417     418       81      82
     183     184      207     208       95      96       98      99
     228     229       42      43      134     135      404     405
     124     125      305     307      339     341      149     150
     158     159       13      14      159     160      390     391
      72      73      352     353      336     337      409     410
     278     279      373     374      123     124       37      38
      28      29      200     201      360     361      406     407
     381     383      398     399      379     380       65      66
      43      44      270     271      298     299      411     413
     412     413       31      32      299     300       17      18
     217     218      221     222      414     415       35      36
     377     378      419     420      171     172      230     231
     291     293       58      59      293     294      249     250
      82      83       12      13      300     301      206     207
     329     330       15      16       33      34      164     165
     146     147      254     255      165     166       85      86
     239     240      268     269      285     287       97      98
     176     177      366     367      214     215      304     305
     350     351      323     324      385     386      333     334
     389     390      163     164       34      35      191     192
      83      84      262     263      104     105      175     176
      54      55      114     115       32      33      112     113
      77      78       38      39      405     406      413     415
     358     359      349     351      353     355       69      70
     169     170      348     349      310     311      416     417
     333     335      323     325      363     364        3       4
     105     106      263     264      325     327       23      24
     202     203      274     275       78      79        7       8
      96      97      418     419      341     343      401     402
     264     265       44      45      401     403        9      10
     327     328      370     371      103     104      205     206
      21      22      383     384      337     339      387     388
     289     291       84      85       73      74      410     411
     385     387       10      11      405     407      291     292
     269     270      365     367      327     329      251     252
     367     369      260     261      309     310      194     195
     303     305      335     336      116     117      285     286
     383     385       57      58       89      90      351     353
      63      64      121     122      318     319      409     411
     346     347      299     301      395     396      143     144
     154     155      108     109      325     326      215     216
     295     297      344     345      371     373      204     205
      26      27      224     225      397     399      259     260
     129     130      186     187      343     344      391     392
     347     349      199     200      256     257      402     403
     148     149      378     379       49      50      188     189
       1       2      211     212      136     137      195     196
     225     226       90      91      122     123      115     116
      16      17      411     412       68      69      178     179
     168     169      415     417      306     307      354     355
     258     259      395     397      247     248      281     283
     127     128      144     145      189     190       27      28
     241     242      174     175      106     107      338     339
     281     282      265     266      234     235       20      21
     196     197      384     385      387     389      208     209
     295     296      400     401      399     401      173     174
      30      31        5       6      345     346       91      92
     152     153       45      46      372     373      142     143
      59      60      283     284       56      57      294     295
     309     311       93      94      316     317      341     342
     311     312       64      65      179     180       92      93
     172     173      340     341      393     395      315     316
     353     354      252     253      293     295       11      12
     413     414       62      63      138     139      317     318
      55      56       87      88      271     272      162     163
     182     183      364     365       19      20      232     233
     305     306      377     379      394     395      355     356
     396     397      276     277       88      89      367     368
      24      25      282     283      363     365      192     193
      94      95      156     157      190     191      417     419
      51      52      155     156      177     178      118     119
     334     335      119     120      328     329      351     352
       2       3      347     348      302     303      147     148
     321     322      324     325      361     363      243     244
     107     108      216     217       41      42      132     133
     374     375      331     332      273     274      113     114
     313     314      223     224      141     142      219     220
      39      40      229     230      321     323      349     350
     166     167      184     185       46      47      399     400
     101     102      253     254       76      77      242     243
     339     340       18      19      393     394       48      49
      25      26      292     293        4       5      244     245
     301     303      109     110      167     168      345     347
     277     278      236     237      386     387      312     313
     279     280       50      51      403     404      187     188
     248     249      315     317      408     409      303     304
      86      87      201     202       22      23      157     158
     380     381      375     376      193     194       74      75
     203     204      240     241      322     323      287     288
     267     268      296     297      288     289      337     338
      67      68      227     228      181     182       36      37
       6       7      357     358       61      62      307     309
     135     136      365     366       52      53      319     320
     117     118      357     359      213     214      185     186
     313     315      343     345      359     360      151     152
     389     391      261     262      355     357      373     375

     342 !NTHETA
     293     295     297      373     375     376      245     246     247
     240     241     242      354     355     356      300     301     303
     404     405     406      342     343     345      327     329     330
     368     369     371      333     335     337      359     361     363
     384     385     386      320     321     322      401     403     405
     408     409     410      395     397     398      307     309     310
     274     275     276      311     313     315      301     303     304
     316     317     319      314     315     317      362     363     364
     340     341     342      217     218     219      314     315     316
     235     236     237      324     325     327      343     345     347
     335     337     338      242     243     244      346     347     349
     404     405     407      285     287     288      246     247     248
     288     289     290      295     297     299      301     303     305
     247     248     249      236     237     238      330     331     333
     304     305     306      341     343     344      333     335     336
     281     283     285      406     407     408      323     325     327
     366     367     368      237     238     239      375     377     379
     324     325     326      312     313     315      295     297     298
     278     279     280      356     357     358      396     397     398
     416     417     418      357     359     361      317     319     321
     305     307     308      358     359     361      342     343     344
     248     249     250      319     321     323      308     309     311
     365     367     369      221     222     223      367     369     370
     411     413     414      374     375     376      252     253     254
     266     267     268      362     363     365      405     407     409
     371     373     374      347     349     351      296     297     299
     288     289     291      407     409     411      343     345     346
     326     327     329      332     333     335      352     353     355
     392     393     394      318     319     321      250     251     252
     376     377     378      357     359     360      389     391     392
     273     274     275      241     242     243      373     375     377
     411     413     415      225     226     227      415     417     419
     313     315     317      233     234     235      399     401     402
     344     345     347      294     295     297      401     403     404
     325     327     329      413     415     416      220     221     222
     302     303     304      339     341     342      228     229     230
     298     299     301      303     305     307      358     359     360
     270     271     272      370     371     372      218     219     220
     389     391     393      212     213     214      283     285     287
     392     393     395      349     351     353      379     381     383
     403     405     407      244     245     246      370     371     373
     257     258     259      309     311     313      310     311     313
     311     313     314      232     233     234      405     407     408
     259     260     261      318     319     320      312     313     314
     348     349     351      413     415     417      289     291     293
     415     417     418      322     323     324      416     417     419
     293     295     296      335     337     339      349     351     352
     374     375     377      388     389     390      224     225     226
     406     407     409      234     235     236      331     333     334
     359     361     362      298     299     300      283     285     286
     336     337     338      308     309     310      327     329     331
     328     329     331      310     311     312      290     291     293
     337     339     340      272     273     274      364     365     366
     351     353     354      285     287     289      214     215     216
     353     355     356      400     401     403      216     217     218
     219     220     221      264     265     266      222     223     224
     292     293     294      414     415     416      390     391     392
     334     335     336      387     389     390      304     305     307
     226     227     228      231     232     233      383     385     386
     326     327     328      364     365     367      323     325     326
     403     405     406      371     373     375      306     307     308
     361     363     365      315     317     318      409     411     412
     376     377     379      394     395     397      276     277     278
     300     301     302      390     391     393      229     230     231
     379     381     382      315     317     319      243     244     245
     395     397     399      386     387     389      321     323     325
     223     224     225      338     339     341      356     357     359
     302     303     305      418     419     420      319     321     322
     260     261     262      291     293     295      352     353     354
     409     411     413      317     319     320      400     401     402
     291     293     294      286     287     289      282     283     285
     332     333     334      294     295     296      393     395     396
     262     263     264      386     387     388      417     419     420
     350     351     352      341     343     345      388     389     391
     306     307     309      360     361     362      329     331     332
     377     379     380      369     371     372      287     289     290
     408     409     411      397     399     400      284     285     286
     410     411     412      265     266     267      381     383     385
     309     311     312      328     329     330      398     399     400
     382     383     384      275     276     277      380     381     382
     396     397     399      334     335     337      336     337     339
     355     357     358      361     363     364      347     349     350
     369     371     373      387     389     391      307     309     311
     397     399     401      316     317     318      254     255     256
     366     367     369      277     278     279      271     272     273
     412     413     414      410     411     413      384     385     387
     299     301     302      263     264     265      380     381     383
     215     216     217      354     355     357      398     399     401
     378     379     380      337     339     341      292     293     295
     281     283     284      297     299     301      399     401     403
     377     379     381      345     347     349      230     231     232
     268     269     270      375     377     378      412     413     415
     287     289     291      355     357     359      340     341     343
     372     373     375      351     353     355      385     387     389
     249     250     251      350     351     353      269     270     271
     211     212     213      414     415     417      329     331     333
     368     369     370      402     403     405      255     256     257
     296     297     298      299     301     303      393     395     397
     227     228     229      353     355     357      330     331     332
     258     259     260      348     349     350      261     262     263
     213     214     215      346     347     348      253     254     255
     363     365     366      238     239     240      325     327     328
     286     287     288      284     285     287      363     365     367
     331     333     335      381     383     384      256     257     258
     391     393     394      382     383     385      313     315     316
     297     299     300      372     373     374      320     321     323
     391     393     395      367     369     371      267     268     269
     365     367     368      239     240     241      338     339     340
     344     345     346      345     347     348      289     291     292
     321     323     324      383     385     387      378     379     381
     251     252     253      385     387     388      402     403     404
     303     305     306      394     395     396      339     341     343
     407     409     410      290     291     292      322     323     325
     360     361     363      305     307     309      282     283     284

     271 !NPHI
     319     321     323     325      267     268     269     270
     333     335     337     339      235     236     237     238
     320     319     321     322      372     371     373     374
     332     331     333     334      338     337     339     340
     414     415     417     418      356     357     359     360
     293     295     297     299      304     305     307     308
     388     387     389     390      234     235     236     237
     347     349     351     353      238     239     240     241
     260     261     262     263      327     329     331     333
     253     254     255     256      274     275     276     277
     322     321     323     324      246     247     248     249
     262     263     264     265      400     399     401     402
     418     417     419     420      233     234     235     236
     222     223     224     225      330     329     331     332
     386     387     389     390      211     212     213     214
     283     285     287     289      328     329     331     332
     314     315     317     318      352     351     353     354
     318     317     319     320      364     365     367     368
     243     244     245     246      330     331     333     334
     254     255     256     257      296     297     299     300
     336     337     339     340      335     337     339     341
     247     248     249     250      377     379     381     383
     410     409     411     412      272     273     274     275
     308     307     309     310      250     251     252     253
     416     417     419     420      343     345     347     349
     334     335     337     338      414     413     415     416
     376     375     377     378      284     283     285     286
     227     228     229     230      310     311     313     314
     337     339     341     343      349     351     353     355
     391     393     395     397      219     220     221     222
     407     409     411     413      312     311     313     314
     380     379     381     382      298     297     299     300
     397     399     401     403      306     307     309     310
     269     270     271     272      367     369     371     373
     226     227     228     229      282     281     283     284
     292     293     295     296      400     401     403     404
     322     323     325     326      318     319     321     322
     402     403     405     406      242     243     244     245
     341     343     345     347      334     333     335     336
     416     415     417     418      326     327     329     330
     393     395     397     399      411     413     415     417
     354     355     357     358      372     373     375     376
     404     403     405     406      348     347     349     350
     344     343     345     346      304     303     305     306
     281     283     285     287      353     355     357     359
     258     259     260     261      342     341     343     344
     355     357     359     361      359     361     363     365
     315     317     319     321      386     385     387     388
     390     389     391     392      369     371     373     375
     229     230     231     232      324     325     327     328
     221     222     223     224      261     262     263     264
     394     395     397     398      374     375     377     378
     307     309     311     313      241     242     243     244
     317     319     321     323      213     214     215     216
     329     331     333     335      273     274     275     276
     388     389     391     392      362     361     363     364
     266     267     268     269      412     411     413     414
     325     327     329     331      290     289     291     292
     223     224     225     226      245     246     247     248
     364     363     365     366      286     287     289     290
     275     276     277     278      402     401     403     404
     379     381     383     385      396     397     399     400
     357     359     361     363      360     359     361     362
     305     307     309     311      240     241     242     243
     215     216     217     218      340     339     341     342
     302     301     303     304      403     405     407     409
     277     278     279     280      368     369     371     372
     265     266     267     268      270     271     272     273
     292     291     293     294      295     297     299     301
     294     295     297     298      231     232     233     234
     392     391     393     394      382     383     385     386
     237     238     239     240      390     391     393     394
     356     355     357     358      345     347     349     351
     401     403     405     407      286     285     287     288
     321     323     325     327      360     361     363     364
     225     226     227     228      284     285     287     288
     257     258     259     260      338     339     341     342
     404     405     407     408      382     381     383     384
     378     379     381     382      301     303     305     307
     370     371     373     374      340     341     343     344
     350     351     353     354      299     301     303     305
     232     233     234     235      320     321     323     324
     236     237     238     239      332     333     335     336
     313     315     317     319      366     365     367     368
     385     387     389     391      406     407     409     410
     412     413     415     416      220     221     222     223
     248     249     250     251      256     257     258     259
     271     272     273     274      316     315     317     318
     339     341     343     345      399     401     403     405
     408     407     409     410      376     377     379     380
     371     373     375     377      378     377     379     380
     408     409     411     412      354     353     355     356
     291     293     295     297      300     301     303     304
     344     345     347     348      323     325     327     329
     324     323     325     326      264     265     266     267
     380     381     383     384      285     287     289     291
     308     309     311     312      288     289     291     292
     331     333     335     337      362     363     365     366
     268     269     270     271      348     349     351     352
     395     397     399     401      282     283     285     286
     230     231     232     233      370     369     371     372
     351     353     355     357      396     395     397     398
     398     397     399     400      410     411     413     414
     405     407     409     411      346     345     347     348
     249     250     251     252      218     219     220     221
     350     349     351     352      290     291     293     294
     373     375     377     379      244     245     246     247
     326     325     327     328      375     377     379     381
     358     359     361     362      252     253     254     255
     310     309     311     312      406     405     407     408
     212     213     214     215      363     365     367     369
     383     385     387     389      328     327     329     330
     297     299     301     303      381     383     385     387
     366     367     369     370      309     311     313     315
     255     256     257     258      312     313     315     316
     239     240     241     242      413     415     417     419
     384     383     385     386      288     287     289     290
     306     305     307     308      358     357     359     360
     302     303     305     306      251     252     253     254
     217     218     219     220      365     367     369     371
     361     363     365     367      294     293     295     296
     216     217     218     219      409     411     413     415
     298     299     301     302      346     347     349     350
     342     343     345     346      374     373     375     376
     314     313     315     316      316     317     319     320
     392     393     395     396      289     291     293     295
     387     389     391     393      384     385     387     388
     336     335     337     338      394     393     395     396
     311     313     315     317      300     299     301     302
     296     295     297     298      303     305     307     309
     276     277     278     279      398     399     401     402
     389     391     393     395      287     289     291     293
     259     260     261     262      368     367     369     370
     214     215     216     217      224     225     226     227
     228     229     230     231      352     353     355     356
     263     264     265     266 

       0 !NIMPHI


       0 !NDON: donors



       0 !NACC: acceptors



       0 !NNB

      0       0       0       0       0       0       0       0
      0       0       0       0       0       0       0       0
      0       0       0       0       0       0       0       0
      0       0       0       0       0       0       0       0
      0       0       0       0       0       0       0       0
      0       0       0       0       0       0       0       0
      0       0       0       0       0       0       0       0
      0       0       0       0       0       0       0       0
      0       0       0       0       0       0       0       0
      0       0       0       0       0       0       0       0
      0       0       0       0       0       0       0       0
      0       0       0       0       0       0       0       0
      0       0       0       0       0       0       0       0
      0       0       0       0       0       0       0       0
      0       0       0       0       0       0       0       0
      0       0       0       0       0       0       0       0
      0       0       0       0       0       0       0       0
      0       0       0       0       0       0       0       0
      0       0       0       0       0       0       0       0
      0       0       0       0       0       0       0       0
      0       0       0       0       0       0       0       0
      0       0       0       0       0       0       0       0
      0       0       0       0       0       0       0       0
      0       0       0       0       0       0       0       0
      0       0       0       0       0       0       0       0
      0       0       0       0       0       0       0       0
      0       0       0       0       0       0       0       0
      0       0       0       0       0       0       0       0
      0       0       0       0       0       0       0       0
      0       0       0       0       0       0       0       0
      0       0       0       0       0       0       0       0
      0       0       0       0       0       0       0       0
      0       0       0       0       0       0       0       0
      0       0       0       0       0       0       0       0
      0       0       0       0       0       0       0       0
      0       0       0       0       0       0       0       0
      0       0       0       0       0       0       0       0
      0       0       0       0       0       0       0       0
      0       0       0       0       0       0       0       0
      0       0       0       0       0       0       0       0
      0       0       0       0       0       0       0       0
      0       0       0       0       0       0       0       0
      0       0       0       0       0       0       0       0
      0       0       0       0       0       0       0       0
      0       0       0       0       0       0       0       0
      0       0       0       0       0       0       0       0
      0       0       0       0       0       0       0       0
      0       0       0       0       0       0       0       0
      0       0       0       0       0       0       0       0
      0       0       0       0       0       0       0       0
      0       0       0       0       0       0       0       0
      0       0       0       0       0       0       0       0
      0      0      0      0

       1       0 !NGRP

