PSF NAMD

       0 !NTITLE

    1000 !NATOM
       1 loop    1          P       P       P       0.000000 121.000000
       2 loop    1          B       B       B       0.000000 181.000000
       3 loop    2          P       P       P       0.000000 121.000000
       4 loop    2          B       B       B       0.000000 181.000000
       5 loop    3          P       P       P       0.000000 121.000000
       6 loop    3          B       B       B       0.000000 181.000000
       7 loop    4          P       P       P       0.000000 121.000000
       8 loop    4          B       B       B       0.000000 181.000000
       9 loop    5          P       P       P       0.000000 121.000000
      10 loop    5          B       B       B       0.000000 181.000000
      11 loop    6          P       P       P       0.000000 121.000000
      12 loop    6          B       B       B       0.000000 181.000000
      13 loop    7          P       P       P       0.000000 121.000000
      14 loop    7          B       B       B       0.000000 181.000000
      15 loop    8          P       P       P       0.000000 121.000000
      16 loop    8          B       B       B       0.000000 181.000000
      17 loop    9          P       P       P       0.000000 121.000000
      18 loop    9          B       B       B       0.000000 181.000000
      19 loop    10         P       P       P       0.000000 121.000000
      20 loop    10         B       B       B       0.000000 181.000000
      21 loop    11         P       P       P       0.000000 121.000000
      22 loop    11         B       B       B       0.000000 181.000000
      23 loop    12         P       P       P       0.000000 121.000000
      24 loop    12         B       B       B       0.000000 181.000000
      25 loop    13         P       P       P       0.000000 121.000000
      26 loop    13         B       B       B       0.000000 181.000000
      27 loop    14         P       P       P       0.000000 121.000000
      28 loop    14         B       B       B       0.000000 181.000000
      29 loop    15         P       P       P       0.000000 121.000000
      30 loop    15         B       B       B       0.000000 181.000000
      31 loop    16         P       P       P       0.000000 121.000000
      32 loop    16         B       B       B       0.000000 181.000000
      33 loop    17         P       P       P       0.000000 121.000000
      34 loop    17         B       B       B       0.000000 181.000000
      35 loop    18         P       P       P       0.000000 121.000000
      36 loop    18         B       B       B       0.000000 181.000000
      37 loop    19         P       P       P       0.000000 121.000000
      38 loop    19         B       B       B       0.000000 181.000000
      39 loop    20         P       P       P       0.000000 121.000000
      40 loop    20         B       B       B       0.000000 181.000000
      41 loop    21         P       P       P       0.000000 121.000000
      42 loop    21         B       B       B       0.000000 181.000000
      43 loop    22         P       P       P       0.000000 121.000000
      44 loop    22         B       B       B       0.000000 181.000000
      45 loop    23         P       P       P       0.000000 121.000000
      46 loop    23         B       B       B       0.000000 181.000000
      47 loop    24         P       P       P       0.000000 121.000000
      48 loop    24         B       B       B       0.000000 181.000000
      49 loop    25         P       P       P       0.000000 121.000000
      50 loop    25         B       B       B       0.000000 181.000000
      51 loop    26         P       P       P       0.000000 121.000000
      52 loop    26         B       B       B       0.000000 181.000000
      53 loop    27         P       P       P       0.000000 121.000000
      54 loop    27         B       B       B       0.000000 181.000000
      55 loop    28         P       P       P       0.000000 121.000000
      56 loop    28         B       B       B       0.000000 181.000000
      57 loop    29         P       P       P       0.000000 121.000000
      58 loop    29         B       B       B       0.000000 181.000000
      59 loop    30         P       P       P       0.000000 121.000000
      60 loop    30         B       B       B       0.000000 181.000000
      61 loop    31         P       P       P       0.000000 121.000000
      62 loop    31         B       B       B       0.000000 181.000000
      63 loop    32         P       P       P       0.000000 121.000000
      64 loop    32         B       B       B       0.000000 181.000000
      65 loop    33         P       P       P       0.000000 121.000000
      66 loop    33         B       B       B       0.000000 181.000000
      67 loop    34         P       P       P       0.000000 121.000000
      68 loop    34         B       B       B       0.000000 181.000000
      69 loop    35         P       P       P       0.000000 121.000000
      70 loop    35         B       B       B       0.000000 181.000000
      71 loop    36         P       P       P       0.000000 121.000000
      72 loop    36         B       B       B       0.000000 181.000000
      73 loop    37         P       P       P       0.000000 121.000000
      74 loop    37         B       B       B       0.000000 181.000000
      75 loop    38         P       P       P       0.000000 121.000000
      76 loop    38         B       B       B       0.000000 181.000000
      77 loop    39         P       P       P       0.000000 121.000000
      78 loop    39         B       B       B       0.000000 181.000000
      79 loop    40         P       P       P       0.000000 121.000000
      80 loop    40         B       B       B       0.000000 181.000000
      81 loop    41         P       P       P       0.000000 121.000000
      82 loop    41         B       B       B       0.000000 181.000000
      83 loop    42         P       P       P       0.000000 121.000000
      84 loop    42         B       B       B       0.000000 181.000000
      85 loop    43         P       P       P       0.000000 121.000000
      86 loop    43         B       B       B       0.000000 181.000000
      87 loop    44         P       P       P       0.000000 121.000000
      88 loop    44         B       B       B       0.000000 181.000000
      89 loop    45         P       P       P       0.000000 121.000000
      90 loop    45         B       B       B       0.000000 181.000000
      91 loop    46         P       P       P       0.000000 121.000000
      92 loop    46         B       B       B       0.000000 181.000000
      93 loop    47         P       P       P       0.000000 121.000000
      94 loop    47         B       B       B       0.000000 181.000000
      95 loop    48         P       P       P       0.000000 121.000000
      96 loop    48         B       B       B       0.000000 181.000000
      97 loop    49         P       P       P       0.000000 121.000000
      98 loop    49         B       B       B       0.000000 181.000000
      99 loop    50         P       P       P       0.000000 121.000000
     100 loop    50         B       B       B       0.000000 181.000000
     101 loop    51         P       P       P       0.000000 121.000000
     102 loop    51         B       B       B       0.000000 181.000000
     103 loop    52         P       P       P       0.000000 121.000000
     104 loop    52         B       B       B       0.000000 181.000000
     105 loop    53         P       P       P       0.000000 121.000000
     106 loop    53         B       B       B       0.000000 181.000000
     107 loop    54         P       P       P       0.000000 121.000000
     108 loop    54         B       B       B       0.000000 181.000000
     109 loop    55         P       P       P       0.000000 121.000000
     110 loop    55         B       B       B       0.000000 181.000000
     111 loop    56         P       P       P       0.000000 121.000000
     112 loop    56         B       B       B       0.000000 181.000000
     113 loop    57         P       P       P       0.000000 121.000000
     114 loop    57         B       B       B       0.000000 181.000000
     115 loop    58         P       P       P       0.000000 121.000000
     116 loop    58         B       B       B       0.000000 181.000000
     117 loop    59         P       P       P       0.000000 121.000000
     118 loop    59         B       B       B       0.000000 181.000000
     119 loop    60         P       P       P       0.000000 121.000000
     120 loop    60         B       B       B       0.000000 181.000000
     121 loop    61         P       P       P       0.000000 121.000000
     122 loop    61         B       B       B       0.000000 181.000000
     123 loop    62         P       P       P       0.000000 121.000000
     124 loop    62         B       B       B       0.000000 181.000000
     125 loop    63         P       P       P       0.000000 121.000000
     126 loop    63         B       B       B       0.000000 181.000000
     127 loop    64         P       P       P       0.000000 121.000000
     128 loop    64         B       B       B       0.000000 181.000000
     129 loop    65         P       P       P       0.000000 121.000000
     130 loop    65         B       B       B       0.000000 181.000000
     131 loop    66         P       P       P       0.000000 121.000000
     132 loop    66         B       B       B       0.000000 181.000000
     133 loop    67         P       P       P       0.000000 121.000000
     134 loop    67         B       B       B       0.000000 181.000000
     135 loop    68         P       P       P       0.000000 121.000000
     136 loop    68         B       B       B       0.000000 181.000000
     137 loop    69         P       P       P       0.000000 121.000000
     138 loop    69         B       B       B       0.000000 181.000000
     139 loop    70         P       P       P       0.000000 121.000000
     140 loop    70         B       B       B       0.000000 181.000000
     141 loop    71         P       P       P       0.000000 121.000000
     142 loop    71         B       B       B       0.000000 181.000000
     143 loop    72         P       P       P       0.000000 121.000000
     144 loop    72         B       B       B       0.000000 181.000000
     145 loop    73         P       P       P       0.000000 121.000000
     146 loop    73         B       B       B       0.000000 181.000000
     147 loop    74         P       P       P       0.000000 121.000000
     148 loop    74         B       B       B       0.000000 181.000000
     149 loop    75         P       P       P       0.000000 121.000000
     150 loop    75         B       B       B       0.000000 181.000000
     151 loop    76         P       P       P       0.000000 121.000000
     152 loop    76         B       B       B       0.000000 181.000000
     153 loop    77         P       P       P       0.000000 121.000000
     154 loop    77         B       B       B       0.000000 181.000000
     155 loop    78         P       P       P       0.000000 121.000000
     156 loop    78         B       B       B       0.000000 181.000000
     157 loop    79         P       P       P       0.000000 121.000000
     158 loop    79         B       B       B       0.000000 181.000000
     159 loop    80         P       P       P       0.000000 121.000000
     160 loop    80         B       B       B       0.000000 181.000000
     161 loop    81         P       P       P       0.000000 121.000000
     162 loop    81         B       B       B       0.000000 181.000000
     163 loop    82         P       P       P       0.000000 121.000000
     164 loop    82         B       B       B       0.000000 181.000000
     165 loop    83         P       P       P       0.000000 121.000000
     166 loop    83         B       B       B       0.000000 181.000000
     167 loop    84         P       P       P       0.000000 121.000000
     168 loop    84         B       B       B       0.000000 181.000000
     169 loop    85         P       P       P       0.000000 121.000000
     170 loop    85         B       B       B       0.000000 181.000000
     171 loop    86         P       P       P       0.000000 121.000000
     172 loop    86         B       B       B       0.000000 181.000000
     173 loop    87         P       P       P       0.000000 121.000000
     174 loop    87         B       B       B       0.000000 181.000000
     175 loop    88         P       P       P       0.000000 121.000000
     176 loop    88         B       B       B       0.000000 181.000000
     177 loop    89         P       P       P       0.000000 121.000000
     178 loop    89         B       B       B       0.000000 181.000000
     179 loop    90         P       P       P       0.000000 121.000000
     180 loop    90         B       B       B       0.000000 181.000000
     181 loop    91         P       P       P       0.000000 121.000000
     182 loop    91         B       B       B       0.000000 181.000000
     183 loop    92         P       P       P       0.000000 121.000000
     184 loop    92         B       B       B       0.000000 181.000000
     185 loop    93         P       P       P       0.000000 121.000000
     186 loop    93         B       B       B       0.000000 181.000000
     187 loop    94         P       P       P       0.000000 121.000000
     188 loop    94         B       B       B       0.000000 181.000000
     189 loop    95         P       P       P       0.000000 121.000000
     190 loop    95         B       B       B       0.000000 181.000000
     191 loop    96         P       P       P       0.000000 121.000000
     192 loop    96         B       B       B       0.000000 181.000000
     193 loop    97         P       P       P       0.000000 121.000000
     194 loop    97         B       B       B       0.000000 181.000000
     195 loop    98         P       P       P       0.000000 121.000000
     196 loop    98         B       B       B       0.000000 181.000000
     197 loop    99         P       P       P       0.000000 121.000000
     198 loop    99         B       B       B       0.000000 181.000000
     199 loop    100        P       P       P       0.000000 121.000000
     200 loop    100        B       B       B       0.000000 181.000000
     201 loop    101        P       P       P       0.000000 121.000000
     202 loop    101        B       B       B       0.000000 181.000000
     203 loop    102        P       P       P       0.000000 121.000000
     204 loop    102        B       B       B       0.000000 181.000000
     205 loop    103        P       P       P       0.000000 121.000000
     206 loop    103        B       B       B       0.000000 181.000000
     207 loop    104        P       P       P       0.000000 121.000000
     208 loop    104        B       B       B       0.000000 181.000000
     209 loop    105        P       P       P       0.000000 121.000000
     210 loop    105        B       B       B       0.000000 181.000000
     211 loop    106        P       P       P       0.000000 121.000000
     212 loop    106        B       B       B       0.000000 181.000000
     213 loop    107        P       P       P       0.000000 121.000000
     214 loop    107        B       B       B       0.000000 181.000000
     215 loop    108        P       P       P       0.000000 121.000000
     216 loop    108        B       B       B       0.000000 181.000000
     217 loop    109        P       P       P       0.000000 121.000000
     218 loop    109        B       B       B       0.000000 181.000000
     219 loop    110        P       P       P       0.000000 121.000000
     220 loop    110        B       B       B       0.000000 181.000000
     221 loop    111        P       P       P       0.000000 121.000000
     222 loop    111        B       B       B       0.000000 181.000000
     223 loop    112        P       P       P       0.000000 121.000000
     224 loop    112        B       B       B       0.000000 181.000000
     225 loop    113        P       P       P       0.000000 121.000000
     226 loop    113        B       B       B       0.000000 181.000000
     227 loop    114        P       P       P       0.000000 121.000000
     228 loop    114        B       B       B       0.000000 181.000000
     229 loop    115        P       P       P       0.000000 121.000000
     230 loop    115        B       B       B       0.000000 181.000000
     231 loop    116        P       P       P       0.000000 121.000000
     232 loop    116        B       B       B       0.000000 181.000000
     233 loop    117        P       P       P       0.000000 121.000000
     234 loop    117        B       B       B       0.000000 181.000000
     235 loop    118        P       P       P       0.000000 121.000000
     236 loop    118        B       B       B       0.000000 181.000000
     237 loop    119        P       P       P       0.000000 121.000000
     238 loop    119        B       B       B       0.000000 181.000000
     239 loop    120        P       P       P       0.000000 121.000000
     240 loop    120        B       B       B       0.000000 181.000000
     241 loop    121        P       P       P       0.000000 121.000000
     242 loop    121        B       B       B       0.000000 181.000000
     243 loop    122        P       P       P       0.000000 121.000000
     244 loop    122        B       B       B       0.000000 181.000000
     245 loop    123        P       P       P       0.000000 121.000000
     246 loop    123        B       B       B       0.000000 181.000000
     247 loop    124        P       P       P       0.000000 121.000000
     248 loop    124        B       B       B       0.000000 181.000000
     249 loop    125        P       P       P       0.000000 121.000000
     250 loop    125        B       B       B       0.000000 181.000000
     251 loop    126        P       P       P       0.000000 121.000000
     252 loop    126        B       B       B       0.000000 181.000000
     253 loop    127        P       P       P       0.000000 121.000000
     254 loop    127        B       B       B       0.000000 181.000000
     255 loop    128        P       P       P       0.000000 121.000000
     256 loop    128        B       B       B       0.000000 181.000000
     257 loop    129        P       P       P       0.000000 121.000000
     258 loop    129        B       B       B       0.000000 181.000000
     259 loop    130        P       P       P       0.000000 121.000000
     260 loop    130        B       B       B       0.000000 181.000000
     261 loop    131        P       P       P       0.000000 121.000000
     262 loop    131        B       B       B       0.000000 181.000000
     263 loop    132        P       P       P       0.000000 121.000000
     264 loop    132        B       B       B       0.000000 181.000000
     265 loop    133        P       P       P       0.000000 121.000000
     266 loop    133        B       B       B       0.000000 181.000000
     267 loop    134        P       P       P       0.000000 121.000000
     268 loop    134        B       B       B       0.000000 181.000000
     269 loop    135        P       P       P       0.000000 121.000000
     270 loop    135        B       B       B       0.000000 181.000000
     271 loop    136        P       P       P       0.000000 121.000000
     272 loop    136        B       B       B       0.000000 181.000000
     273 loop    137        P       P       P       0.000000 121.000000
     274 loop    137        B       B       B       0.000000 181.000000
     275 loop    138        P       P       P       0.000000 121.000000
     276 loop    138        B       B       B       0.000000 181.000000
     277 loop    139        P       P       P       0.000000 121.000000
     278 loop    139        B       B       B       0.000000 181.000000
     279 loop    140        P       P       P       0.000000 121.000000
     280 loop    140        B       B       B       0.000000 181.000000
     281 loop    141        P       P       P       0.000000 121.000000
     282 loop    141        B       B       B       0.000000 181.000000
     283 loop    142        P       P       P       0.000000 121.000000
     284 loop    142        B       B       B       0.000000 181.000000
     285 loop    143        P       P       P       0.000000 121.000000
     286 loop    143        B       B       B       0.000000 181.000000
     287 loop    144        P       P       P       0.000000 121.000000
     288 loop    144        B       B       B       0.000000 181.000000
     289 loop    145        P       P       P       0.000000 121.000000
     290 loop    145        B       B       B       0.000000 181.000000
     291 loop    146        P       P       P       0.000000 121.000000
     292 loop    146        B       B       B       0.000000 181.000000
     293 loop    147        P       P       P       0.000000 121.000000
     294 loop    147        B       B       B       0.000000 181.000000
     295 loop    148        P       P       P       0.000000 121.000000
     296 loop    148        B       B       B       0.000000 181.000000
     297 loop    149        P       P       P       0.000000 121.000000
     298 loop    149        B       B       B       0.000000 181.000000
     299 loop    150        P       P       P       0.000000 121.000000
     300 loop    150        B       B       B       0.000000 181.000000
     301 loop    151        P       P       P       0.000000 121.000000
     302 loop    151        B       B       B       0.000000 181.000000
     303 loop    152        P       P       P       0.000000 121.000000
     304 loop    152        B       B       B       0.000000 181.000000
     305 loop    153        P       P       P       0.000000 121.000000
     306 loop    153        B       B       B       0.000000 181.000000
     307 loop    154        P       P       P       0.000000 121.000000
     308 loop    154        B       B       B       0.000000 181.000000
     309 loop    155        P       P       P       0.000000 121.000000
     310 loop    155        B       B       B       0.000000 181.000000
     311 loop    156        P       P       P       0.000000 121.000000
     312 loop    156        B       B       B       0.000000 181.000000
     313 loop    157        P       P       P       0.000000 121.000000
     314 loop    157        B       B       B       0.000000 181.000000
     315 loop    158        P       P       P       0.000000 121.000000
     316 loop    158        B       B       B       0.000000 181.000000
     317 loop    159        P       P       P       0.000000 121.000000
     318 loop    159        B       B       B       0.000000 181.000000
     319 loop    160        P       P       P       0.000000 121.000000
     320 loop    160        B       B       B       0.000000 181.000000
     321 loop    161        P       P       P       0.000000 121.000000
     322 loop    161        B       B       B       0.000000 181.000000
     323 loop    162        P       P       P       0.000000 121.000000
     324 loop    162        B       B       B       0.000000 181.000000
     325 loop    163        P       P       P       0.000000 121.000000
     326 loop    163        B       B       B       0.000000 181.000000
     327 loop    164        P       P       P       0.000000 121.000000
     328 loop    164        B       B       B       0.000000 181.000000
     329 loop    165        P       P       P       0.000000 121.000000
     330 loop    165        B       B       B       0.000000 181.000000
     331 loop    166        P       P       P       0.000000 121.000000
     332 loop    166        B       B       B       0.000000 181.000000
     333 loop    167        P       P       P       0.000000 121.000000
     334 loop    167        B       B       B       0.000000 181.000000
     335 loop    168        P       P       P       0.000000 121.000000
     336 loop    168        B       B       B       0.000000 181.000000
     337 loop    169        P       P       P       0.000000 121.000000
     338 loop    169        B       B       B       0.000000 181.000000
     339 loop    170        P       P       P       0.000000 121.000000
     340 loop    170        B       B       B       0.000000 181.000000
     341 loop    171        P       P       P       0.000000 121.000000
     342 loop    171        B       B       B       0.000000 181.000000
     343 loop    172        P       P       P       0.000000 121.000000
     344 loop    172        B       B       B       0.000000 181.000000
     345 loop    173        P       P       P       0.000000 121.000000
     346 loop    173        B       B       B       0.000000 181.000000
     347 loop    174        P       P       P       0.000000 121.000000
     348 loop    174        B       B       B       0.000000 181.000000
     349 loop    175        P       P       P       0.000000 121.000000
     350 loop    175        B       B       B       0.000000 181.000000
     351 loop    176        P       P       P       0.000000 121.000000
     352 loop    176        B       B       B       0.000000 181.000000
     353 loop    177        P       P       P       0.000000 121.000000
     354 loop    177        B       B       B       0.000000 181.000000
     355 loop    178        P       P       P       0.000000 121.000000
     356 loop    178        B       B       B       0.000000 181.000000
     357 loop    179        P       P       P       0.000000 121.000000
     358 loop    179        B       B       B       0.000000 181.000000
     359 loop    180        P       P       P       0.000000 121.000000
     360 loop    180        B       B       B       0.000000 181.000000
     361 loop    181        P       P       P       0.000000 121.000000
     362 loop    181        B       B       B       0.000000 181.000000
     363 loop    182        P       P       P       0.000000 121.000000
     364 loop    182        B       B       B       0.000000 181.000000
     365 loop    183        P       P       P       0.000000 121.000000
     366 loop    183        B       B       B       0.000000 181.000000
     367 loop    184        P       P       P       0.000000 121.000000
     368 loop    184        B       B       B       0.000000 181.000000
     369 loop    185        P       P       P       0.000000 121.000000
     370 loop    185        B       B       B       0.000000 181.000000
     371 loop    186        P       P       P       0.000000 121.000000
     372 loop    186        B       B       B       0.000000 181.000000
     373 loop    187        P       P       P       0.000000 121.000000
     374 loop    187        B       B       B       0.000000 181.000000
     375 loop    188        P       P       P       0.000000 121.000000
     376 loop    188        B       B       B       0.000000 181.000000
     377 loop    189        P       P       P       0.000000 121.000000
     378 loop    189        B       B       B       0.000000 181.000000
     379 loop    190        P       P       P       0.000000 121.000000
     380 loop    190        B       B       B       0.000000 181.000000
     381 loop    191        P       P       P       0.000000 121.000000
     382 loop    191        B       B       B       0.000000 181.000000
     383 loop    192        P       P       P       0.000000 121.000000
     384 loop    192        B       B       B       0.000000 181.000000
     385 loop    193        P       P       P       0.000000 121.000000
     386 loop    193        B       B       B       0.000000 181.000000
     387 loop    194        P       P       P       0.000000 121.000000
     388 loop    194        B       B       B       0.000000 181.000000
     389 loop    195        P       P       P       0.000000 121.000000
     390 loop    195        B       B       B       0.000000 181.000000
     391 loop    196        P       P       P       0.000000 121.000000
     392 loop    196        B       B       B       0.000000 181.000000
     393 loop    197        P       P       P       0.000000 121.000000
     394 loop    197        B       B       B       0.000000 181.000000
     395 loop    198        P       P       P       0.000000 121.000000
     396 loop    198        B       B       B       0.000000 181.000000
     397 loop    199        P       P       P       0.000000 121.000000
     398 loop    199        B       B       B       0.000000 181.000000
     399 loop    200        P       P       P       0.000000 121.000000
     400 loop    200        B       B       B       0.000000 181.000000
     401 loop    201        P       P       P       0.000000 121.000000
     402 loop    201        B       B       B       0.000000 181.000000
     403 loop    202        P       P       P       0.000000 121.000000
     404 loop    202        B       B       B       0.000000 181.000000
     405 loop    203        P       P       P       0.000000 121.000000
     406 loop    203        B       B       B       0.000000 181.000000
     407 loop    204        P       P       P       0.000000 121.000000
     408 loop    204        B       B       B       0.000000 181.000000
     409 loop    205        P       P       P       0.000000 121.000000
     410 loop    205        B       B       B       0.000000 181.000000
     411 loop    206        P       P       P       0.000000 121.000000
     412 loop    206        B       B       B       0.000000 181.000000
     413 loop    207        P       P       P       0.000000 121.000000
     414 loop    207        B       B       B       0.000000 181.000000
     415 loop    208        P       P       P       0.000000 121.000000
     416 loop    208        B       B       B       0.000000 181.000000
     417 loop    209        P       P       P       0.000000 121.000000
     418 loop    209        B       B       B       0.000000 181.000000
     419 loop    210        P       P       P       0.000000 121.000000
     420 loop    210        B       B       B       0.000000 181.000000
     421 loop    211        P       P       P       0.000000 121.000000
     422 loop    211        B       B       B       0.000000 181.000000
     423 loop    212        P       P       P       0.000000 121.000000
     424 loop    212        B       B       B       0.000000 181.000000
     425 loop    213        P       P       P       0.000000 121.000000
     426 loop    213        B       B       B       0.000000 181.000000
     427 loop    214        P       P       P       0.000000 121.000000
     428 loop    214        B       B       B       0.000000 181.000000
     429 loop    215        P       P       P       0.000000 121.000000
     430 loop    215        B       B       B       0.000000 181.000000
     431 loop    216        P       P       P       0.000000 121.000000
     432 loop    216        B       B       B       0.000000 181.000000
     433 loop    217        P       P       P       0.000000 121.000000
     434 loop    217        B       B       B       0.000000 181.000000
     435 loop    218        P       P       P       0.000000 121.000000
     436 loop    218        B       B       B       0.000000 181.000000
     437 loop    219        P       P       P       0.000000 121.000000
     438 loop    219        B       B       B       0.000000 181.000000
     439 loop    220        P       P       P       0.000000 121.000000
     440 loop    220        B       B       B       0.000000 181.000000
     441 loop    221        P       P       P       0.000000 121.000000
     442 loop    221        B       B       B       0.000000 181.000000
     443 loop    222        P       P       P       0.000000 121.000000
     444 loop    222        B       B       B       0.000000 181.000000
     445 loop    223        P       P       P       0.000000 121.000000
     446 loop    223        B       B       B       0.000000 181.000000
     447 loop    224        P       P       P       0.000000 121.000000
     448 loop    224        B       B       B       0.000000 181.000000
     449 loop    225        P       P       P       0.000000 121.000000
     450 loop    225        B       B       B       0.000000 181.000000
     451 loop    226        P       P       P       0.000000 121.000000
     452 loop    226        B       B       B       0.000000 181.000000
     453 loop    227        P       P       P       0.000000 121.000000
     454 loop    227        B       B       B       0.000000 181.000000
     455 loop    228        P       P       P       0.000000 121.000000
     456 loop    228        B       B       B       0.000000 181.000000
     457 loop    229        P       P       P       0.000000 121.000000
     458 loop    229        B       B       B       0.000000 181.000000
     459 loop    230        P       P       P       0.000000 121.000000
     460 loop    230        B       B       B       0.000000 181.000000
     461 loop    231        P       P       P       0.000000 121.000000
     462 loop    231        B       B       B       0.000000 181.000000
     463 loop    232        P       P       P       0.000000 121.000000
     464 loop    232        B       B       B       0.000000 181.000000
     465 loop    233        P       P       P       0.000000 121.000000
     466 loop    233        B       B       B       0.000000 181.000000
     467 loop    234        P       P       P       0.000000 121.000000
     468 loop    234        B       B       B       0.000000 181.000000
     469 loop    235        P       P       P       0.000000 121.000000
     470 loop    235        B       B       B       0.000000 181.000000
     471 loop    236        P       P       P       0.000000 121.000000
     472 loop    236        B       B       B       0.000000 181.000000
     473 loop    237        P       P       P       0.000000 121.000000
     474 loop    237        B       B       B       0.000000 181.000000
     475 loop    238        P       P       P       0.000000 121.000000
     476 loop    238        B       B       B       0.000000 181.000000
     477 loop    239        P       P       P       0.000000 121.000000
     478 loop    239        B       B       B       0.000000 181.000000
     479 loop    240        P       P       P       0.000000 121.000000
     480 loop    240        B       B       B       0.000000 181.000000
     481 loop    241        P       P       P       0.000000 121.000000
     482 loop    241        B       B       B       0.000000 181.000000
     483 loop    242        P       P       P       0.000000 121.000000
     484 loop    242        B       B       B       0.000000 181.000000
     485 loop    243        P       P       P       0.000000 121.000000
     486 loop    243        B       B       B       0.000000 181.000000
     487 loop    244        P       P       P       0.000000 121.000000
     488 loop    244        B       B       B       0.000000 181.000000
     489 loop    245        P       P       P       0.000000 121.000000
     490 loop    245        B       B       B       0.000000 181.000000
     491 loop    246        P       P       P       0.000000 121.000000
     492 loop    246        B       B       B       0.000000 181.000000
     493 loop    247        P       P       P       0.000000 121.000000
     494 loop    247        B       B       B       0.000000 181.000000
     495 loop    248        P       P       P       0.000000 121.000000
     496 loop    248        B       B       B       0.000000 181.000000
     497 loop    249        P       P       P       0.000000 121.000000
     498 loop    249        B       B       B       0.000000 181.000000
     499 loop    250        P       P       P       0.000000 121.000000
     500 loop    250        B       B       B       0.000000 181.000000
     501 loop    251        P       P       P       0.000000 121.000000
     502 loop    251        B       B       B       0.000000 181.000000
     503 loop    252        P       P       P       0.000000 121.000000
     504 loop    252        B       B       B       0.000000 181.000000
     505 loop    253        P       P       P       0.000000 121.000000
     506 loop    253        B       B       B       0.000000 181.000000
     507 loop    254        P       P       P       0.000000 121.000000
     508 loop    254        B       B       B       0.000000 181.000000
     509 loop    255        P       P       P       0.000000 121.000000
     510 loop    255        B       B       B       0.000000 181.000000
     511 loop    256        P       P       P       0.000000 121.000000
     512 loop    256        B       B       B       0.000000 181.000000
     513 loop    257        P       P       P       0.000000 121.000000
     514 loop    257        B       B       B       0.000000 181.000000
     515 loop    258        P       P       P       0.000000 121.000000
     516 loop    258        B       B       B       0.000000 181.000000
     517 loop    259        P       P       P       0.000000 121.000000
     518 loop    259        B       B       B       0.000000 181.000000
     519 loop    260        P       P       P       0.000000 121.000000
     520 loop    260        B       B       B       0.000000 181.000000
     521 loop    261        P       P       P       0.000000 121.000000
     522 loop    261        B       B       B       0.000000 181.000000
     523 loop    262        P       P       P       0.000000 121.000000
     524 loop    262        B       B       B       0.000000 181.000000
     525 loop    263        P       P       P       0.000000 121.000000
     526 loop    263        B       B       B       0.000000 181.000000
     527 loop    264        P       P       P       0.000000 121.000000
     528 loop    264        B       B       B       0.000000 181.000000
     529 loop    265        P       P       P       0.000000 121.000000
     530 loop    265        B       B       B       0.000000 181.000000
     531 loop    266        P       P       P       0.000000 121.000000
     532 loop    266        B       B       B       0.000000 181.000000
     533 loop    267        P       P       P       0.000000 121.000000
     534 loop    267        B       B       B       0.000000 181.000000
     535 loop    268        P       P       P       0.000000 121.000000
     536 loop    268        B       B       B       0.000000 181.000000
     537 loop    269        P       P       P       0.000000 121.000000
     538 loop    269        B       B       B       0.000000 181.000000
     539 loop    270        P       P       P       0.000000 121.000000
     540 loop    270        B       B       B       0.000000 181.000000
     541 loop    271        P       P       P       0.000000 121.000000
     542 loop    271        B       B       B       0.000000 181.000000
     543 loop    272        P       P       P       0.000000 121.000000
     544 loop    272        B       B       B       0.000000 181.000000
     545 loop    273        P       P       P       0.000000 121.000000
     546 loop    273        B       B       B       0.000000 181.000000
     547 loop    274        P       P       P       0.000000 121.000000
     548 loop    274        B       B       B       0.000000 181.000000
     549 loop    275        P       P       P       0.000000 121.000000
     550 loop    275        B       B       B       0.000000 181.000000
     551 loop    276        P       P       P       0.000000 121.000000
     552 loop    276        B       B       B       0.000000 181.000000
     553 loop    277        P       P       P       0.000000 121.000000
     554 loop    277        B       B       B       0.000000 181.000000
     555 loop    278        P       P       P       0.000000 121.000000
     556 loop    278        B       B       B       0.000000 181.000000
     557 loop    279        P       P       P       0.000000 121.000000
     558 loop    279        B       B       B       0.000000 181.000000
     559 loop    280        P       P       P       0.000000 121.000000
     560 loop    280        B       B       B       0.000000 181.000000
     561 loop    281        P       P       P       0.000000 121.000000
     562 loop    281        B       B       B       0.000000 181.000000
     563 loop    282        P       P       P       0.000000 121.000000
     564 loop    282        B       B       B       0.000000 181.000000
     565 loop    283        P       P       P       0.000000 121.000000
     566 loop    283        B       B       B       0.000000 181.000000
     567 loop    284        P       P       P       0.000000 121.000000
     568 loop    284        B       B       B       0.000000 181.000000
     569 loop    285        P       P       P       0.000000 121.000000
     570 loop    285        B       B       B       0.000000 181.000000
     571 loop    286        P       P       P       0.000000 121.000000
     572 loop    286        B       B       B       0.000000 181.000000
     573 loop    287        P       P       P       0.000000 121.000000
     574 loop    287        B       B       B       0.000000 181.000000
     575 loop    288        P       P       P       0.000000 121.000000
     576 loop    288        B       B       B       0.000000 181.000000
     577 loop    289        P       P       P       0.000000 121.000000
     578 loop    289        B       B       B       0.000000 181.000000
     579 loop    290        P       P       P       0.000000 121.000000
     580 loop    290        B       B       B       0.000000 181.000000
     581 loop    291        P       P       P       0.000000 121.000000
     582 loop    291        B       B       B       0.000000 181.000000
     583 loop    292        P       P       P       0.000000 121.000000
     584 loop    292        B       B       B       0.000000 181.000000
     585 loop    293        P       P       P       0.000000 121.000000
     586 loop    293        B       B       B       0.000000 181.000000
     587 loop    294        P       P       P       0.000000 121.000000
     588 loop    294        B       B       B       0.000000 181.000000
     589 loop    295        P       P       P       0.000000 121.000000
     590 loop    295        B       B       B       0.000000 181.000000
     591 loop    296        P       P       P       0.000000 121.000000
     592 loop    296        B       B       B       0.000000 181.000000
     593 loop    297        P       P       P       0.000000 121.000000
     594 loop    297        B       B       B       0.000000 181.000000
     595 loop    298        P       P       P       0.000000 121.000000
     596 loop    298        B       B       B       0.000000 181.000000
     597 loop    299        P       P       P       0.000000 121.000000
     598 loop    299        B       B       B       0.000000 181.000000
     599 loop    300        P       P       P       0.000000 121.000000
     600 loop    300        B       B       B       0.000000 181.000000
     601 loop    301        P       P       P       0.000000 121.000000
     602 loop    301        B       B       B       0.000000 181.000000
     603 loop    302        P       P       P       0.000000 121.000000
     604 loop    302        B       B       B       0.000000 181.000000
     605 loop    303        P       P       P       0.000000 121.000000
     606 loop    303        B       B       B       0.000000 181.000000
     607 loop    304        P       P       P       0.000000 121.000000
     608 loop    304        B       B       B       0.000000 181.000000
     609 loop    305        P       P       P       0.000000 121.000000
     610 loop    305        B       B       B       0.000000 181.000000
     611 loop    306        P       P       P       0.000000 121.000000
     612 loop    306        B       B       B       0.000000 181.000000
     613 loop    307        P       P       P       0.000000 121.000000
     614 loop    307        B       B       B       0.000000 181.000000
     615 loop    308        P       P       P       0.000000 121.000000
     616 loop    308        B       B       B       0.000000 181.000000
     617 loop    309        P       P       P       0.000000 121.000000
     618 loop    309        B       B       B       0.000000 181.000000
     619 loop    310        P       P       P       0.000000 121.000000
     620 loop    310        B       B       B       0.000000 181.000000
     621 loop    311        P       P       P       0.000000 121.000000
     622 loop    311        B       B       B       0.000000 181.000000
     623 loop    312        P       P       P       0.000000 121.000000
     624 loop    312        B       B       B       0.000000 181.000000
     625 loop    313        P       P       P       0.000000 121.000000
     626 loop    313        B       B       B       0.000000 181.000000
     627 loop    314        P       P       P       0.000000 121.000000
     628 loop    314        B       B       B       0.000000 181.000000
     629 loop    315        P       P       P       0.000000 121.000000
     630 loop    315        B       B       B       0.000000 181.000000
     631 loop    316        P       P       P       0.000000 121.000000
     632 loop    316        B       B       B       0.000000 181.000000
     633 loop    317        P       P       P       0.000000 121.000000
     634 loop    317        B       B       B       0.000000 181.000000
     635 loop    318        P       P       P       0.000000 121.000000
     636 loop    318        B       B       B       0.000000 181.000000
     637 loop    319        P       P       P       0.000000 121.000000
     638 loop    319        B       B       B       0.000000 181.000000
     639 loop    320        P       P       P       0.000000 121.000000
     640 loop    320        B       B       B       0.000000 181.000000
     641 loop    321        P       P       P       0.000000 121.000000
     642 loop    321        B       B       B       0.000000 181.000000
     643 loop    322        P       P       P       0.000000 121.000000
     644 loop    322        B       B       B       0.000000 181.000000
     645 loop    323        P       P       P       0.000000 121.000000
     646 loop    323        B       B       B       0.000000 181.000000
     647 loop    324        P       P       P       0.000000 121.000000
     648 loop    324        B       B       B       0.000000 181.000000
     649 loop    325        P       P       P       0.000000 121.000000
     650 loop    325        B       B       B       0.000000 181.000000
     651 loop    326        P       P       P       0.000000 121.000000
     652 loop    326        B       B       B       0.000000 181.000000
     653 loop    327        P       P       P       0.000000 121.000000
     654 loop    327        B       B       B       0.000000 181.000000
     655 loop    328        P       P       P       0.000000 121.000000
     656 loop    328        B       B       B       0.000000 181.000000
     657 loop    329        P       P       P       0.000000 121.000000
     658 loop    329        B       B       B       0.000000 181.000000
     659 loop    330        P       P       P       0.000000 121.000000
     660 loop    330        B       B       B       0.000000 181.000000
     661 loop    331        P       P       P       0.000000 121.000000
     662 loop    331        B       B       B       0.000000 181.000000
     663 loop    332        P       P       P       0.000000 121.000000
     664 loop    332        B       B       B       0.000000 181.000000
     665 loop    333        P       P       P       0.000000 121.000000
     666 loop    333        B       B       B       0.000000 181.000000
     667 loop    334        P       P       P       0.000000 121.000000
     668 loop    334        B       B       B       0.000000 181.000000
     669 loop    335        P       P       P       0.000000 121.000000
     670 loop    335        B       B       B       0.000000 181.000000
     671 loop    336        P       P       P       0.000000 121.000000
     672 loop    336        B       B       B       0.000000 181.000000
     673 loop    337        P       P       P       0.000000 121.000000
     674 loop    337        B       B       B       0.000000 181.000000
     675 loop    338        P       P       P       0.000000 121.000000
     676 loop    338        B       B       B       0.000000 181.000000
     677 loop    339        P       P       P       0.000000 121.000000
     678 loop    339        B       B       B       0.000000 181.000000
     679 loop    340        P       P       P       0.000000 121.000000
     680 loop    340        B       B       B       0.000000 181.000000
     681 loop    341        P       P       P       0.000000 121.000000
     682 loop    341        B       B       B       0.000000 181.000000
     683 loop    342        P       P       P       0.000000 121.000000
     684 loop    342        B       B       B       0.000000 181.000000
     685 loop    343        P       P       P       0.000000 121.000000
     686 loop    343        B       B       B       0.000000 181.000000
     687 loop    344        P       P       P       0.000000 121.000000
     688 loop    344        B       B       B       0.000000 181.000000
     689 loop    345        P       P       P       0.000000 121.000000
     690 loop    345        B       B       B       0.000000 181.000000
     691 loop    346        P       P       P       0.000000 121.000000
     692 loop    346        B       B       B       0.000000 181.000000
     693 loop    347        P       P       P       0.000000 121.000000
     694 loop    347        B       B       B       0.000000 181.000000
     695 loop    348        P       P       P       0.000000 121.000000
     696 loop    348        B       B       B       0.000000 181.000000
     697 loop    349        P       P       P       0.000000 121.000000
     698 loop    349        B       B       B       0.000000 181.000000
     699 loop    350        P       P       P       0.000000 121.000000
     700 loop    350        B       B       B       0.000000 181.000000
     701 loop    351        P       P       P       0.000000 121.000000
     702 loop    351        B       B       B       0.000000 181.000000
     703 loop    352        P       P       P       0.000000 121.000000
     704 loop    352        B       B       B       0.000000 181.000000
     705 loop    353        P       P       P       0.000000 121.000000
     706 loop    353        B       B       B       0.000000 181.000000
     707 loop    354        P       P       P       0.000000 121.000000
     708 loop    354        B       B       B       0.000000 181.000000
     709 loop    355        P       P       P       0.000000 121.000000
     710 loop    355        B       B       B       0.000000 181.000000
     711 loop    356        P       P       P       0.000000 121.000000
     712 loop    356        B       B       B       0.000000 181.000000
     713 loop    357        P       P       P       0.000000 121.000000
     714 loop    357        B       B       B       0.000000 181.000000
     715 loop    358        P       P       P       0.000000 121.000000
     716 loop    358        B       B       B       0.000000 181.000000
     717 loop    359        P       P       P       0.000000 121.000000
     718 loop    359        B       B       B       0.000000 181.000000
     719 loop    360        P       P       P       0.000000 121.000000
     720 loop    360        B       B       B       0.000000 181.000000
     721 loop    361        P       P       P       0.000000 121.000000
     722 loop    361        B       B       B       0.000000 181.000000
     723 loop    362        P       P       P       0.000000 121.000000
     724 loop    362        B       B       B       0.000000 181.000000
     725 loop    363        P       P       P       0.000000 121.000000
     726 loop    363        B       B       B       0.000000 181.000000
     727 loop    364        P       P       P       0.000000 121.000000
     728 loop    364        B       B       B       0.000000 181.000000
     729 loop    365        P       P       P       0.000000 121.000000
     730 loop    365        B       B       B       0.000000 181.000000
     731 loop    366        P       P       P       0.000000 121.000000
     732 loop    366        B       B       B       0.000000 181.000000
     733 loop    367        P       P       P       0.000000 121.000000
     734 loop    367        B       B       B       0.000000 181.000000
     735 loop    368        P       P       P       0.000000 121.000000
     736 loop    368        B       B       B       0.000000 181.000000
     737 loop    369        P       P       P       0.000000 121.000000
     738 loop    369        B       B       B       0.000000 181.000000
     739 loop    370        P       P       P       0.000000 121.000000
     740 loop    370        B       B       B       0.000000 181.000000
     741 loop    371        P       P       P       0.000000 121.000000
     742 loop    371        B       B       B       0.000000 181.000000
     743 loop    372        P       P       P       0.000000 121.000000
     744 loop    372        B       B       B       0.000000 181.000000
     745 loop    373        P       P       P       0.000000 121.000000
     746 loop    373        B       B       B       0.000000 181.000000
     747 loop    374        P       P       P       0.000000 121.000000
     748 loop    374        B       B       B       0.000000 181.000000
     749 loop    375        P       P       P       0.000000 121.000000
     750 loop    375        B       B       B       0.000000 181.000000
     751 loop    376        P       P       P       0.000000 121.000000
     752 loop    376        B       B       B       0.000000 181.000000
     753 loop    377        P       P       P       0.000000 121.000000
     754 loop    377        B       B       B       0.000000 181.000000
     755 loop    378        P       P       P       0.000000 121.000000
     756 loop    378        B       B       B       0.000000 181.000000
     757 loop    379        P       P       P       0.000000 121.000000
     758 loop    379        B       B       B       0.000000 181.000000
     759 loop    380        P       P       P       0.000000 121.000000
     760 loop    380        B       B       B       0.000000 181.000000
     761 loop    381        P       P       P       0.000000 121.000000
     762 loop    381        B       B       B       0.000000 181.000000
     763 loop    382        P       P       P       0.000000 121.000000
     764 loop    382        B       B       B       0.000000 181.000000
     765 loop    383        P       P       P       0.000000 121.000000
     766 loop    383        B       B       B       0.000000 181.000000
     767 loop    384        P       P       P       0.000000 121.000000
     768 loop    384        B       B       B       0.000000 181.000000
     769 loop    385        P       P       P       0.000000 121.000000
     770 loop    385        B       B       B       0.000000 181.000000
     771 loop    386        P       P       P       0.000000 121.000000
     772 loop    386        B       B       B       0.000000 181.000000
     773 loop    387        P       P       P       0.000000 121.000000
     774 loop    387        B       B       B       0.000000 181.000000
     775 loop    388        P       P       P       0.000000 121.000000
     776 loop    388        B       B       B       0.000000 181.000000
     777 loop    389        P       P       P       0.000000 121.000000
     778 loop    389        B       B       B       0.000000 181.000000
     779 loop    390        P       P       P       0.000000 121.000000
     780 loop    390        B       B       B       0.000000 181.000000
     781 loop    391        P       P       P       0.000000 121.000000
     782 loop    391        B       B       B       0.000000 181.000000
     783 loop    392        P       P       P       0.000000 121.000000
     784 loop    392        B       B       B       0.000000 181.000000
     785 loop    393        P       P       P       0.000000 121.000000
     786 loop    393        B       B       B       0.000000 181.000000
     787 loop    394        P       P       P       0.000000 121.000000
     788 loop    394        B       B       B       0.000000 181.000000
     789 loop    395        P       P       P       0.000000 121.000000
     790 loop    395        B       B       B       0.000000 181.000000
     791 loop    396        P       P       P       0.000000 121.000000
     792 loop    396        B       B       B       0.000000 181.000000
     793 loop    397        P       P       P       0.000000 121.000000
     794 loop    397        B       B       B       0.000000 181.000000
     795 loop    398        P       P       P       0.000000 121.000000
     796 loop    398        B       B       B       0.000000 181.000000
     797 loop    399        P       P       P       0.000000 121.000000
     798 loop    399        B       B       B       0.000000 181.000000
     799 loop    400        P       P       P       0.000000 121.000000
     800 loop    400        B       B       B       0.000000 181.000000
     801 loop    401        P       P       P       0.000000 121.000000
     802 loop    401        B       B       B       0.000000 181.000000
     803 loop    402        P       P       P       0.000000 121.000000
     804 loop    402        B       B       B       0.000000 181.000000
     805 loop    403        P       P       P       0.000000 121.000000
     806 loop    403        B       B       B       0.000000 181.000000
     807 loop    404        P       P       P       0.000000 121.000000
     808 loop    404        B       B       B       0.000000 181.000000
     809 loop    405        P       P       P       0.000000 121.000000
     810 loop    405        B       B       B       0.000000 181.000000
     811 loop    406        P       P       P       0.000000 121.000000
     812 loop    406        B       B       B       0.000000 181.000000
     813 loop    407        P       P       P       0.000000 121.000000
     814 loop    407        B       B       B       0.000000 181.000000
     815 loop    408        P       P       P       0.000000 121.000000
     816 loop    408        B       B       B       0.000000 181.000000
     817 loop    409        P       P       P       0.000000 121.000000
     818 loop    409        B       B       B       0.000000 181.000000
     819 loop    410        P       P       P       0.000000 121.000000
     820 loop    410        B       B       B       0.000000 181.000000
     821 loop    411        P       P       P       0.000000 121.000000
     822 loop    411        B       B       B       0.000000 181.000000
     823 loop    412        P       P       P       0.000000 121.000000
     824 loop    412        B       B       B       0.000000 181.000000
     825 loop    413        P       P       P       0.000000 121.000000
     826 loop    413        B       B       B       0.000000 181.000000
     827 loop    414        P       P       P       0.000000 121.000000
     828 loop    414        B       B       B       0.000000 181.000000
     829 loop    415        P       P       P       0.000000 121.000000
     830 loop    415        B       B       B       0.000000 181.000000
     831 loop    416        P       P       P       0.000000 121.000000
     832 loop    416        B       B       B       0.000000 181.000000
     833 loop    417        P       P       P       0.000000 121.000000
     834 loop    417        B       B       B       0.000000 181.000000
     835 loop    418        P       P       P       0.000000 121.000000
     836 loop    418        B       B       B       0.000000 181.000000
     837 loop    419        P       P       P       0.000000 121.000000
     838 loop    419        B       B       B       0.000000 181.000000
     839 loop    420        P       P       P       0.000000 121.000000
     840 loop    420        B       B       B       0.000000 181.000000
     841 loop    421        P       P       P       0.000000 121.000000
     842 loop    421        B       B       B       0.000000 181.000000
     843 loop    422        P       P       P       0.000000 121.000000
     844 loop    422        B       B       B       0.000000 181.000000
     845 loop    423        P       P       P       0.000000 121.000000
     846 loop    423        B       B       B       0.000000 181.000000
     847 loop    424        P       P       P       0.000000 121.000000
     848 loop    424        B       B       B       0.000000 181.000000
     849 loop    425        P       P       P       0.000000 121.000000
     850 loop    425        B       B       B       0.000000 181.000000
     851 loop    426        P       P       P       0.000000 121.000000
     852 loop    426        B       B       B       0.000000 181.000000
     853 loop    427        P       P       P       0.000000 121.000000
     854 loop    427        B       B       B       0.000000 181.000000
     855 loop    428        P       P       P       0.000000 121.000000
     856 loop    428        B       B       B       0.000000 181.000000
     857 loop    429        P       P       P       0.000000 121.000000
     858 loop    429        B       B       B       0.000000 181.000000
     859 loop    430        P       P       P       0.000000 121.000000
     860 loop    430        B       B       B       0.000000 181.000000
     861 loop    431        P       P       P       0.000000 121.000000
     862 loop    431        B       B       B       0.000000 181.000000
     863 loop    432        P       P       P       0.000000 121.000000
     864 loop    432        B       B       B       0.000000 181.000000
     865 loop    433        P       P       P       0.000000 121.000000
     866 loop    433        B       B       B       0.000000 181.000000
     867 loop    434        P       P       P       0.000000 121.000000
     868 loop    434        B       B       B       0.000000 181.000000
     869 loop    435        P       P       P       0.000000 121.000000
     870 loop    435        B       B       B       0.000000 181.000000
     871 loop    436        P       P       P       0.000000 121.000000
     872 loop    436        B       B       B       0.000000 181.000000
     873 loop    437        P       P       P       0.000000 121.000000
     874 loop    437        B       B       B       0.000000 181.000000
     875 loop    438        P       P       P       0.000000 121.000000
     876 loop    438        B       B       B       0.000000 181.000000
     877 loop    439        P       P       P       0.000000 121.000000
     878 loop    439        B       B       B       0.000000 181.000000
     879 loop    440        P       P       P       0.000000 121.000000
     880 loop    440        B       B       B       0.000000 181.000000
     881 loop    441        P       P       P       0.000000 121.000000
     882 loop    441        B       B       B       0.000000 181.000000
     883 loop    442        P       P       P       0.000000 121.000000
     884 loop    442        B       B       B       0.000000 181.000000
     885 loop    443        P       P       P       0.000000 121.000000
     886 loop    443        B       B       B       0.000000 181.000000
     887 loop    444        P       P       P       0.000000 121.000000
     888 loop    444        B       B       B       0.000000 181.000000
     889 loop    445        P       P       P       0.000000 121.000000
     890 loop    445        B       B       B       0.000000 181.000000
     891 loop    446        P       P       P       0.000000 121.000000
     892 loop    446        B       B       B       0.000000 181.000000
     893 loop    447        P       P       P       0.000000 121.000000
     894 loop    447        B       B       B       0.000000 181.000000
     895 loop    448        P       P       P       0.000000 121.000000
     896 loop    448        B       B       B       0.000000 181.000000
     897 loop    449        P       P       P       0.000000 121.000000
     898 loop    449        B       B       B       0.000000 181.000000
     899 loop    450        P       P       P       0.000000 121.000000
     900 loop    450        B       B       B       0.000000 181.000000
     901 loop    451        P       P       P       0.000000 121.000000
     902 loop    451        B       B       B       0.000000 181.000000
     903 loop    452        P       P       P       0.000000 121.000000
     904 loop    452        B       B       B       0.000000 181.000000
     905 loop    453        P       P       P       0.000000 121.000000
     906 loop    453        B       B       B       0.000000 181.000000
     907 loop    454        P       P       P       0.000000 121.000000
     908 loop    454        B       B       B       0.000000 181.000000
     909 loop    455        P       P       P       0.000000 121.000000
     910 loop    455        B       B       B       0.000000 181.000000
     911 loop    456        P       P       P       0.000000 121.000000
     912 loop    456        B       B       B       0.000000 181.000000
     913 loop    457        P       P       P       0.000000 121.000000
     914 loop    457        B       B       B       0.000000 181.000000
     915 loop    458        P       P       P       0.000000 121.000000
     916 loop    458        B       B       B       0.000000 181.000000
     917 loop    459        P       P       P       0.000000 121.000000
     918 loop    459        B       B       B       0.000000 181.000000
     919 loop    460        P       P       P       0.000000 121.000000
     920 loop    460        B       B       B       0.000000 181.000000
     921 loop    461        P       P       P       0.000000 121.000000
     922 loop    461        B       B       B       0.000000 181.000000
     923 loop    462        P       P       P       0.000000 121.000000
     924 loop    462        B       B       B       0.000000 181.000000
     925 loop    463        P       P       P       0.000000 121.000000
     926 loop    463        B       B       B       0.000000 181.000000
     927 loop    464        P       P       P       0.000000 121.000000
     928 loop    464        B       B       B       0.000000 181.000000
     929 loop    465        P       P       P       0.000000 121.000000
     930 loop    465        B       B       B       0.000000 181.000000
     931 loop    466        P       P       P       0.000000 121.000000
     932 loop    466        B       B       B       0.000000 181.000000
     933 loop    467        P       P       P       0.000000 121.000000
     934 loop    467        B       B       B       0.000000 181.000000
     935 loop    468        P       P       P       0.000000 121.000000
     936 loop    468        B       B       B       0.000000 181.000000
     937 loop    469        P       P       P       0.000000 121.000000
     938 loop    469        B       B       B       0.000000 181.000000
     939 loop    470        P       P       P       0.000000 121.000000
     940 loop    470        B       B       B       0.000000 181.000000
     941 loop    471        P       P       P       0.000000 121.000000
     942 loop    471        B       B       B       0.000000 181.000000
     943 loop    472        P       P       P       0.000000 121.000000
     944 loop    472        B       B       B       0.000000 181.000000
     945 loop    473        P       P       P       0.000000 121.000000
     946 loop    473        B       B       B       0.000000 181.000000
     947 loop    474        P       P       P       0.000000 121.000000
     948 loop    474        B       B       B       0.000000 181.000000
     949 loop    475        P       P       P       0.000000 121.000000
     950 loop    475        B       B       B       0.000000 181.000000
     951 loop    476        P       P       P       0.000000 121.000000
     952 loop    476        B       B       B       0.000000 181.000000
     953 loop    477        P       P       P       0.000000 121.000000
     954 loop    477        B       B       B       0.000000 181.000000
     955 loop    478        P       P       P       0.000000 121.000000
     956 loop    478        B       B       B       0.000000 181.000000
     957 loop    479        P       P       P       0.000000 121.000000
     958 loop    479        B       B       B       0.000000 181.000000
     959 loop    480        P       P       P       0.000000 121.000000
     960 loop    480        B       B       B       0.000000 181.000000
     961 loop    481        P       P       P       0.000000 121.000000
     962 loop    481        B       B       B       0.000000 181.000000
     963 loop    482        P       P       P       0.000000 121.000000
     964 loop    482        B       B       B       0.000000 181.000000
     965 loop    483        P       P       P       0.000000 121.000000
     966 loop    483        B       B       B       0.000000 181.000000
     967 loop    484        P       P       P       0.000000 121.000000
     968 loop    484        B       B       B       0.000000 181.000000
     969 loop    485        P       P       P       0.000000 121.000000
     970 loop    485        B       B       B       0.000000 181.000000
     971 loop    486        P       P       P       0.000000 121.000000
     972 loop    486        B       B       B       0.000000 181.000000
     973 loop    487        P       P       P       0.000000 121.000000
     974 loop    487        B       B       B       0.000000 181.000000
     975 loop    488        P       P       P       0.000000 121.000000
     976 loop    488        B       B       B       0.000000 181.000000
     977 loop    489        P       P       P       0.000000 121.000000
     978 loop    489        B       B       B       0.000000 181.000000
     979 loop    490        P       P       P       0.000000 121.000000
     980 loop    490        B       B       B       0.000000 181.000000
     981 loop    491        P       P       P       0.000000 121.000000
     982 loop    491        B       B       B       0.000000 181.000000
     983 loop    492        P       P       P       0.000000 121.000000
     984 loop    492        B       B       B       0.000000 181.000000
     985 loop    493        P       P       P       0.000000 121.000000
     986 loop    493        B       B       B       0.000000 181.000000
     987 loop    494        P       P       P       0.000000 121.000000
     988 loop    494        B       B       B       0.000000 181.000000
     989 loop    495        P       P       P       0.000000 121.000000
     990 loop    495        B       B       B       0.000000 181.000000
     991 loop    496        P       P       P       0.000000 121.000000
     992 loop    496        B       B       B       0.000000 181.000000
     993 loop    497        P       P       P       0.000000 121.000000
     994 loop    497        B       B       B       0.000000 181.000000
     995 loop    498        P       P       P       0.000000 121.000000
     996 loop    498        B       B       B       0.000000 181.000000
     997 loop    499        P       P       P       0.000000 121.000000
     998 loop    499        B       B       B       0.000000 181.000000
     999 loop    500        P       P       P       0.000000 121.000000
    1000 loop    500        B       B       B       0.000000 181.000000

    1498 !NBOND
     294     295      196     197      744     745      841     842
     597     598      964     965      353     354      408     409
     656     657      264     265      812     813      854     855
     453     455      700     701      185     186      752     753
     612     613      665     666      907     909      584     585
     904     905      447     448      340     341      124     125
      61      63       16      17      977     979      352     353
     239     240      905     906      721     723      863     865
     171     172      719     720      475     476      493     494
     621     622      418     419      323     325      737     739
      63      64      694     695      789     791      631     633
     317     318      285     286       91      93      141     142
     156     157      326     327       38      39       56      57
      77      78      360     361      216     217      896     897
     417     419      331     332      273     275      371     373
     763     764      714     715      470     471       99     101
     653     655      535     537      947     948      383     384
     593     595      640     641      165     167      931     933
      77      79       65      66      829     831      826     827
     369     370      731     733      647     648      716     717
     845     847      973     974      828     829      994     995
     139     140      391     392      894     895      657     659
     330     331      784     785      483     485      250     251
     455     457       21      22      353     355      435     436
     880     881       83      85      852     853      405     407
     835     836      307     309      973     975      567     568
     373     375      658     659      723     724      706     707
      17      19      580     581      207     208      388     389
     262     263      861     863      750     751      575     576
     926     927      939     940      642     643      501     503
     183     185      414     415      365     366      270     271
     996     997      818     819      643     644      723     725
     720     721      915     916      991     992      590     591
     153     155      169     170      788     789      547     549
     935     936      544     545      407     409      833     834
     226     227      699     701      751     753      103     105
     715     716      583     585      767     769      725     726
     903     905      871     872      339     341      155     157
     599     600      116     117      128     129      944     945
     632     633      697     698      213     214      761     762
     212     213      312     313      772     773      468     469
      36      37       54      55      131     133      409     410
     235     236      901     902        8       9      774     775
     917     918      673     674      118     119       91      92
     351     353      651     653      400     401      184     185
     213     215      909     910      200     201       87      89
     536     537      434     435      325     327      727     728
     252     253      150     151      688     689       55      57
      74      75      740     741      137     138       24      25
     971     973      892     893      797     799      404     405
     551     552      667     669      133     135      325     326
     523     524      233     234      710     711      205     206
     857     858      878     879      703     704      608     609
     755     756      107     108       62      63      246     247
     639     641      303     304       12      13      159     160
     393     395      365     367      507     508      289     291
     557     559      718     719      623     625      420     421
     471     472      924     925      956     957      135     136
     703     705      202     203      489     490       76      77
     259     261      641     642       71      73      447     449
     879     881      839     840      316     317      267     268
     851     853      887     888      655     656       98      99
     151     153      571     572      195     197      933     934
     663     664      905     907      341     343      831     832
     338     339      261     263      154     155      493     495
      81      82      609     611      356     357      641     643
      33      35      638     639      765     767      685     687
     975     977      363     364      794     795      899     900
     413     415      611     613      801     802      492     493
     382     383      376     377      671     672      317     319
     912     913      988     989      473     474      494     495
     589     591      928     929      127     128      398     399
      61      62      692     693      787     789      562     563
     225     227      977     978      315     316      283     284
     275     277      286     287      868     869      292     293
     624     625      671     673      533     534      763     765
     211     213      730     731      771     772      846     847
     737     738       75      76      383     385      275     276
     792     793      940     941      938     939      279     281
     857     859       35      37       53      55      464     465
     482     483      369     371      914     915      555     557
     549     550      345     346      231     232      883     885
     881     882      753     754       96      97      645     646
     889     891      244     245      585     586      769     770
     510     511      320     321      992     993      778     779
     417     418      273     274      389     390      821     822
     524     525      782     783      245     246      146     147
      19      21      687     689      155     156      837     838
      68      69      593     594      611     612       23      25
     834     835      133     134        2       3      553     555
     701     703      981     982      691     692      850     851
     606     607      419     420      104     105      201     202
     336     337      921     923      484     485      953     955
     389     391      741     742      529     531      636     637
     448     449      214     215      455     456      607     608
     717     719      197     198      757     758      473     475
       1       2      816     817       57      58      201     203
     966     967      432     433      175     176      265     266
     541     543      351     352      167     168      315     317
     443     445      283     285      986     987      613     614
      37      38      424     425      519     521      527     529
     375     376      960     961      761     763       17      18
     626     627      296     297      539     540      975     976
     743     744      290     291      401     402      942     943
     188     189      234     235       48      49      859     861
     728     729      475     477        6       7      874     875
     909     911      345     347      777     779      103     104
     968     969      806     807      158     159      462     463
     509     511      357     358      645     647      543     545
     691     693      979     981      137     139      558     559
     285     287      241     242      648     649      907     908
     861     862      959     960      119     120      686     687
     271     272      227     229      893     895      190     191
     243     244      144     145      863     864      319     320
     287     288      463     465      781     782      240     241
     789     790      678     679      362     363      489     491
     218     219      898     899      334     335      459     460
     757     759       95      97      319     321      672     673
     287     289      797     798      823     825      887     889
     110     111      191     193      781     783      385     386
     126     127      497     498      479     481      281     282
     933     935      639     640      831     833        1       3
     178     179      709     710      567     569      192     193
     363     365      321     322      899     901      335     337
     829     830      427     428      783     784      635     637
     693     694      733     734      734     735      897     898
     528     529      625     626       94      95      112     113
     485     486      209     210      308     309      164     165
     405     406        4       5      261     262      941     942
     396     397      180     181      503     505      277     278
     609     610      804     805       33      34       51      52
     862     863      765     766        5       6      247     248
     820     821      199     200      725     727      534     535
     439     441       13      14       19      20      377     379
     793     795       71      72      941     943      549     551
     426     427      521     523      231     233      753     755
       5       7      630     631      251     252      431     432
     585     587      602     603      967     969      543     544
     148     149      157     159      229     230      451     452
     699     700      238     239      569     570      586     587
     903     904      339     340      676     677      961     963
     708     709      779     781      875     876      776     777
      53      54      478     479      419     421       25      26
     811     813       45      47      969     970      795     796
     500     501      131     132      189     191      711     712
     982     983      374     375      569     571      163     164
     102     103      951     952      538     539      147     148
     963     964      197     199       79      81      745     747
     742     743      361     363      897     899      175     177
     860     861      945     946      191     192      669     671
     525     526      715     717      429     431      471     473
     613     615      731     732        9      10       30      31
     125     127      445     446      877     878      895     896
     971     972      220     221      886     887      161     162
     502     503      483     484      667     668      555     556
     650     651      995     997      422     423      620     621
     123     124      525     527      958     959      394     395
     204     205      307     308      923     924      842     843
      81      83      598     599      161     163      952     953
     689     690      477     478      853     855      993     994
     186     187      559     560      251     253      193     194
     666     667      865     866      791     793      527     528
     545     546      343     345      460     461      749     750
     358     359      643     645      179     181      403     404
     119     121      364     365      337     338      153     154
     195     196      387     389      476     477      819     821
     859     860      323     324      350     351      113     114
     793     794      591     593      129     130      509     510
     425     427      659     661      142     143      760     761
     873     875      589     590      870     871      629     631
     129     131      945     947      332     333      497     499
     281     283      469     471      412     413      565     566
     675     677      948     949      384     385      704     705
     775     777      263     265      304     305      260     261
     837     839      713     715      467     468        7       8
     327     329       15      17      997     999       95      96
     726     727      537     539      435     437      823     824
     890     891      689     691      378     379      741     743
      70      71      513     514       42      43      983     984
     805     806      421     422      433     434      159     161
     687     688      486     487      391     393      576     577
     749     751      557     558      458     459       26      27
     199     201      247     249      605     606      219     221
      13      15      882     883      117     119      603     604
     805     807      719     721       52      53      421     423
     916     917      957     959      266     267      954     955
     532     533      437     439       11      12      115     116
     293     295      170     171      211     212       73      75
     324     325      717     718      401     403      185     187
     810     811      614     615      587     588      343     344
     427     429      925     926      444     445      628     629
     681     682      541     542      140     141      439     440
      84      85       25      27      357     359      267     269
     803     805      519     520      239     241      452     453
     236     237      836     837       39      41      587     589
     106     107      758     759       47      48      876     877
     163     165      495     497      848     849      467     469
      60      61      410     411      967     968      946     947
     399     401      223     224      498     499      282     283
     121     123      563     565      141     143      759     761
     809     810      922     923      827     829      825     826
     739     741      961     962      397     398      121     122
      93      94      561     562      174     175      359     361
     215     217      895     897      331     333      173     174
     328     329      189     190       90      91      377     378
     732     733      443     444      889     890      931     932
      28      29      123     125      748     749      939     941
     227     228      847     848      508     509      661     662
     463     464      800     801      361     362      574     575
     245     247      333     334      321     323      674     675
     217     219       11      13      709     711      477     479
     115     117      993     995      910     911      783     785
     346     347      305     306      913     915       69      71
     661     663      953     954      770     771      291     293
     925     927       45      46      145     146      832     833
     301     302      866     867      337     339      485     487
     457     459      759     760      785     786      449     451
     999    1000      423     424      657     658      437     438
     335     336       51      53      454     455      293     294
     627     628      817     819      531     533      301     303
     581     583      635     636      450     451      111     112
     791     792      310     311      169     171       37      39
      83      84      407     408      517     519      768     769
     911     913      987     989      809     811      423     425
     927     929       58      59      242     243      581     582
     583     584      825     827      965     966      249     250
     722     723      627     629      221     222      496     497
     280     281      504     505      599     601      596     597
     738     739      512     513      943     945      379     381
     564     565      235     237      835     837      523     525
     105     107      295     296      425     426        7       9
     673     675      929     930       43      44      875     877
     773     775      969     971      847     849      187     188
      88      89      754     755      521     522      203     204
     659     660      906     907      381     382      255     256
     390     391      157     158      929     931       55      56
     433     435       27      28      675     676      359     360
     594     595      215     216      134     135      166     167
     616     617       40      41      514     515      605     607
     713     714      908     909      145     147      984     985
     995     996      571     573      811     812       97      98
      15      16      877     879      440     441      849     851
     503     504      631     632       27      29      537     538
     747     749      456     457      786     787      461     463
     354     355      143     144      864     865      799     801
      49      51      573     575      232     233      815     817
      99     100      111     113       79      80      955     957
     109     110      677     678      127     129      879     880
     249     251      851     852      949     950      808     809
     193     195      341     342      622     623      125     126
     865     867      268     269      449     450      545     547
     957     958      393     394      844     845      177     178
     560     561      600     601      679     680      172     173
      46      47      817     818      736     737      355     357
     668     669      113     115      695     696      277     279
     787     788      465     467       31      32      397     399
       3       4      181     183      198     199      764     765
      93      95      561     563      803     804      487     488
     577     578      533     535      821     823      867     869
      10      11      963     965       66      67      416     417
     511     513      182     183       87      88      272     273
     370     371      279     280      556     557      652     653
     431     433      819     820      592     593      937     939
     773     774      989     991      884     885      101     103
     930     931      603     605      546     547      309     310
     518     519      228     229      436     437      100     101
     615     616      607     609      766     767      798     799
     629     630      554     555      572     573      601     602
     526     527      637     639      677     679      386     387
     208     209       82      83       23      24      309     311
     265     267      349     351      813     815      306     307
     972     973      453     454      885     887      237     238
     855     856      469     470       44      45      707     708
     983     985      375     377      120     121      263     264
     539     541      217     218      883     884      311     312
     841     843      888     889      499     500      785     787
     743     745      491     492      936     937      515     516
      72      73      855     857      807     808      955     956
     194     195      152     153      291     292      299     300
     210     211      479     480      441     442      685     686
     733     735       31      33      965     967      406     407
     505     506        3       5      989     990      698     699
     610     611       34      35      902     903      254     255
     807     809       14      15      621     623       18      19
     681     683       29      30      490     491      959     961
     395     397      222     223      117     118      843     845
     559     561      649     651      130     131      313     314
     619     620      187     189      735     737      517     518
      64      65      911     912      480     481      777     778
     987     988      147     149      927     928      446     447
      73      74      683     684      255     257      181     182
      86      87      269     271      651     652      241     243
     814     815      867     868      858     859      108     109
     253     254      256     257      881     883      729     730
       9      11      970     971      796     797       65      67
     415     417      893     894      329     330      271     273
     951     953      132     133      366     367      707     709
     481     482      143     145      588     589      392     393
     824     825      176     177       21      23      205     207
     729     731      122     123      399     400      979     980
     840     841       20      21      288     289      563     564
     653     654      535     536      333     335      702     703
     149     151      481     483      299     301      289     290
     625     627      739     740      604     605      934     935
     949     951      385     387      633     635      207     209
     258     259      230     231      891     892      327     328
     305     307      466     467      849     850      177     179
     802     803      950     951      679     681      428     429
     151     152      573     574       32      33      348     349
     313     315      780     781      891     893      976     977
     935     937      619     621       43      45      695     697
     373     374      276     277      595     596      871     873
     209     211      913     914      684     685      501     502
      69      70      487     489       41      42      183     184
     459     461      665     667      697     699      985     986
     670     671      901     903      253     255      762     763
     869     870      917     919      578     579      457     458
     114     115      529     530      355     356      550     551
     221     223      278     279      171     173      856     857
      85      86      751     752      368     369      711     713
     646     647      465     466      918     919      615     617
      63      65      531     532      680     681      727     729
     295     297      582     583      724     725      601     603
      39      40      269     270      347     348      980     981
      85      87      173     175       47      49      511     512
     381     383      203     205      566     567      237     239
     779     780      322     323      838     839      107     109
      50      51       22      23      206     207      660     661
     552     553      303     305      795     797      756     757
     662     663      947     949      853     854      701     702
     499     501      105     106      300     301      920     921
     160     161      981     983       97      99      257     258
     379     380      745     746      923     925       59      60
     637     638       92      93      683     685      139     141
     839     841      136     137      168     169      149     150
     284     285      472     473       80      81      618     619
     813     814      655     657      505     507      516     517
     429     430      568     569       67      68      257     259
     540     541      445     447      693     695      229     231
     314     315      442     443      298     299       29      31
     411     412      403     405      664     665      696     697
     869     871      623     624      801     803       89      90
     575     577      900     901      872     873      530     531
     845     846      491     493      162     163       67      69
     747     748      488     489      461     462      259     260
     347     349      411     413      799     800      597     599
     915     917      223     225       49      50      991     993
     474     475      547     548      669     670      815     816
     138     139      771     773      344     345      570     571
     682     683      775     776      833     835      644     645
     542     543      690     691      978     979       75      77
     395     396      413     414      179     180      746     747
     367     368      998     999      705     706      843     844
     649     650      329     331      735     736      577     579
     790     791      937     938      409     411      451     453
     302     303      225     226      342     343      380     381
     367     369      506     507      705     707      769     771
     873     874      297     298       59      61      243     245
     579     580      827     828      962     963      943     944
     495     496       35      36      513     515      767     768
     318     319      274     275      372     373      822     823
     415     416      919     920      387     388      565     567
     654     655      522     523      721     722      297     299
     591     592      579     581      932     933       78      79
     830     831      551     553      402     403      233     235
     520     521       89      91      755     757      617     618
     647     649      919     921      997     998      101     102
     990     991       57      59      634     635      507     509
     633     634      595     597      311     313      553     554
     135     137      974     975      167     169      712     713
     617     619       41      43      515     517      371     372
     430     431      985     987      248     249      921     922
     349     350      548     549      165     166      441     443
     219     220      885     886      224     225      663     665
     438     439      109     111 

    1994 !NTHETA
     120     121     123      134     135     136      301     303     304
     559     561     562      728     729     731      374     375     376
     812     813     814       72      73      74      710     711     712
     639     641     643      765     767     768      204     205     206
     511     513     514      825     827     828      599     601     602
     729     731     732      485     487     489      739     741     743
     798     799     801      214     215     217      764     765     766
     312     313     315      757     759     761       87      89      90
     707     709     710      854     855     856      531     533     535
     968     969     971      781     783     785      778     779     781
     133     135     136       53      55      56      156     157     159
     123     125     127      725     727     728      610     611     613
     675     677     679      762     763     765      141     143     144
     178     179     180      105     107     109      351     353     355
     554     555     556      763     765     766      785     787     788
     744     745     747       35      37      38      944     945     947
     175     177     179      919     921     923      318     319     320
     817     819     821      814     815     817      332     333     335
     735     737     739      636     637     638      118     119     120
     990     991     992      563     565     567      308     309     311
     177     179     180      333     335     336      229     231     233
     656     657     659      387     389     391      153     155     156
     159     161     162      548     549     551      690     691     692
     581     583     584      768     769     770      317     319     320
     443     445     447      713     715     716      456     457     459
     879     881     882      906     907     909      674     675     677
     789     791     792      414     415     416      423     425     427
     949     951     952      568     569     571      136     137     138
     208     209     210      915     917     919      624     625     626
     885     887     888      322     323     324      706     707     709
     513     515     516      487     489     491      731     733     734
     628     629     631      184     185     186      766     767     768
     111     113     115      749     751     752      272     273     275
     495     497     498      580     581     583      621     623     625
      55      57      58      181     183     185      541     543     545
     887     889     890      338     339     341      336     337     338
     313     315     316      740     741     742      164     165     167
     346     347     349      746     747     749      321     323     325
     380     381     383      818     819     821      235     237     239
     600     601     602      393     395     397      957     959     961
     480     481     482      155     157     159      737     739     741
     291     293     295       41      43      45      679     681     682
     310     311     313      745     747     748      844     845     846
     173     175     177      323     325     327      583     585     586
     382     383     385      855     857     859      864     865     866
     971     973     975      444     445     447       15      17      18
     356     357     358      852     853     854      198     199     200
     344     345     346      779     781     783      721     723     724
       4       5       6      113     115     116      339     341     343
     500     501     503       45      47      48      353     355     357
      23      25      26       91      93      95      371     373     374
     570     571     573       12      13      15      491     493     495
     137     139     141      100     101     103      836     837     838
     192     193     194      468     469     470       13      15      16
     561     563     565      815     817     819      237     239     240
     840     841     842      767     769     771      967     969     971
     126     127     129      407     409     410      688     689     690
     223     225     227      273     275     277        2       3       5
     514     515     517      461     463     464      602     603     605
     254     255     256      191     193     194      507     509     511
     751     753     754      820     821     823      143     145     147
     237     239     241      642     643     644      569     571     573
     314     315     317      959     961     963       73      75      77
     682     683     684      611     613     614      432     433     434
     436     437     439      520     521     522      867     869     871
     165     167     168      747     749     750      461     463     465
     359     361     363      390     391     393      716     717     718
     606     607     609      440     441     442      446     447     449
      86      87      88      923     925     927      367     369     371
     168     169     171      391     393     394       46      47      49
     795     797     798      808     809     810      693     695     697
       6       7       8      289     291     292       10      11      13
     574     575     577      373     375     376      445     447     448
     973     975     977      132     133     135       60      61      63
     732     733     735      482     483     484      114     115     117
     627     629     631       19      21      22      260     261     262
     411     413     414      754     755     756      187     189     191
     547     549     551      571     573     574      608     609     611
     826     827     829       82      83      84       71      73      74
     195     197     199      169     171     173      616     617     619
     631     633     634      964     965     967      942     943     945
     954     955     956      671     673     675      150     151     153
     617     619     620      816     817     818      753     755     756
     396     397     399      878     879     880      695     697     698
     299     301     303      294     295     297      517     519     520
     316     317     319      376     377     379      426     427     429
     938     939     941      589     591     592      295     297     298
     450     451     453      888     889     890      832     833     834
     578     579     580      634     635     637      924     925     927
     659     661     662      442     443     444      877     879     880
     119     121     122      709     711     713       92      93      95
     369     371     373       75      77      79      488     489     490
     797     799     800      576     577     579      227     229     230
      42      43      44      494     495     497      447     449     450
     702     703     704      321     323     324      612     613     614
     479     481     483      116     117     119      837     839     840
     620     621     622      413     415     416      756     757     758
     135     137     138      377     379     381      375     377     378
     666     667     668       61      63      64      593     595     597
     764     765     767      199     201     202      226     227     228
     804     805     806      908     909     911      759     761     762
     115     117     118      196     197     198      252     253     255
     240     241     243      827     829     830      880     881     882
     632     633     635      801     803     805      160     161     163
      32      33      34      526     527     528      811     813     814
     870     871     873       17      19      20      455     457     458
     112     113     115      970     971     972      420     421     422
     942     943     944      567     569     570      370     371     373
     523     525     527      636     637     639      926     927     929
     990     991     993      203     205     207      952     953     955
     167     169     171      221     223     224      657     659     661
     772     773     774       56      57      58      416     417     418
       9      11      13      427     429     430      274     275     276
     236     237     239      352     353     355      489     491     493
     976     977     979      335     337     339      419     421     422
      64      65      66      851     853     854      406     407     409
     691     693     694      122     123     125      131     133     135
      59      61      63      462     463     464      290     291     293
     680     681     682      257     259     260      598     599     600
     190     191     193      519     521     523      550     551     553
     348     349     350      448     449     451      388     389     391
     830     831     832      668     669     670      459     461     463
     588     589     591      449     451     452      595     597     599
     340     341     343      217     219     220      244     245     247
     467     469     470      806     807     808      910     911     913
     117     119     120      603     605     607      884     885     886
     584     585     587      395     397     399      687     689     690
     881     883     885      792     793     794      464     465     467
     253     255     256      337     339     340      241     243     244
     422     423     424      883     885     886       24      25      27
     384     385     387      856     857     859      249     251     252
     216     217     218      664     665     666      372     373     375
     641     643     644      654     655     656      694     695     696
     882     883     884       78      79      81       70      71      72
     591     593     595      838     839     840      687     689     691
     871     873     874      765     767     769      989     991     993
     337     339     341      637     639     640      638     639     641
     357     359     360      215     217     218      853     855     856
     434     435     436      890     891     892      408     409     411
     788     789     790      986     987     989      345     347     348
     626     627     628      715     717     719      933     935     937
       5       7       8      292     293     295      536     537     538
     212     213     214       30      31      32      248     249     250
     418     419     420      623     625     627      565     567     568
     283     285     286      454     455     456      669     671     673
     433     435     436      889     891     892      840     841     843
     469     471     472      807     809     811      738     739     741
     389     391     392      644     645     646      849     851     852
     689     691     692      860     861     862      758     759     760
     876     877     879      341     343     344      409     411     413
     597     599     601      428     429     430      460     461     462
     361     363     365      920     921     922      930     931     933
     325     327     328      218     219     220      643     645     646
      80      81      83      242     243     245      476     477     478
     823     825     827      341     343     345      250     251     253
     298     299     301      558     559     560       20      21      23
      25      27      28      243     245     246       95      97      98
     134     135     137      605     607     608      441     443     444
      62      63      65      431     433     434      405     407     409
     618     619     620      927     929     930       72      73      75
     710     711     713      845     847     848      204     205     207
     887     889     891      522     523     525      859     861     863
     262     263     264      189     191     193      658     659     660
     465     467     469      854     855     857      251     253     254
     149     151     152      893     895     896      639     641     642
     650     651     652      296     297     298      328     329     330
     259     261     263      577     579     581      873     875     877
     892     893     894      605     607     609      350     351     353
     819     821     823      178     179     181      531     533     534
     619     621     622      771     773     774      755     757     758
     945     947     948      657     659     660      665     667     668
      94      95      96      470     471     473      614     615     616
     934     935     936      492     493     495      355     357     358
     118     119     121      471     473     474       28      29      30
     119     121     123      363     365     367      246     247     248
     963     965     966       49      51      53       23      25      27
     267     269     271      596     597     598      139     141     142
     869     871     873      573     575     577      690     691     693
     768     769     771       83      85      87      197     199     200
     171     173     175       50      51      52      154     155     157
     993     995     997      982     983     985      414     415     417
     152     153     154      833     835     836      794     795     796
     579     581     582      896     897     898      760     761     762
      58      59      60      208     209     211      297     299     301
     624     625     627      529     531     532      774     775     776
     950     951     953      263     265     267      824     825     826
     452     453     455      902     903     905       63      65      66
     751     753     755      941     943     945      703     705     706
     979     981     982      228     229     230      711     713     714
     894     895     896      401     403     405      205     207     208
     474     475     476      821     823     825      621     623     624
     773     775     776      829     831     832      504     505     506
     226     227     229      304     305     306      600     601     603
     718     719     720      528     529     530      875     877     879
     936     937     938      391     393     395      366     367     368
     703     705     707      946     947     949      279     281     283
     235     237     238      437     439     441      844     845     847
     525     527     529      158     159     160      864     865     867
     503     505     506      758     759     761      356     357     359
      84      85      87      445     447     449      575     577     579
     506     507     509      344     345     347      564     565     566
     552     553     554      899     901     903      780     781     782
      68      69      71      421     423     424      984     985     987
      51      53      55      411     413     415      907     909     910
     210     211     213       69      71      72      342     343     344
     810     811     813      339     341     342       98      99     100
     104     105     106      699     701     703      975     977     979
      81      83      84      836     837     839      192     193     195
     468     469     471      350     351     352      848     849     850
     748     749     750      481     483     484      265     267     269
     743     745     747      904     905     907      943     945     947
     275     277     278       21      23      25      434     435     437
     663     665     667      653     655     657      463     465     466
     951     953     954      895     897     899      254     255     257
     556     557     558      386     387     388      980     981     983
     911     913     915      831     833     834      284     285     286
     607     609     610      306     307     308      211     213     215
     453     455     456      635     637     639      787     789     791
     948     949     951      281     283     285      424     425     426
     432     433     435      914     915     916      349     351     353
     520     521     523      555     557     558      716     717     719
     841     843     845      931     933     935      311     313     314
     988     989     990       86      87      89      777     779     780
     649     651     653      566     567     568      996     997     999
     484     485     486      685     687     688      140     141     143
     909     911     912      504     505     507       61      63      65
     438     439     440      266     267     269      850     851     852
     886     887     888      770     771     773      483     485     486
     754     755     757      900     901     902      535     537     539
     451     453     455      984     985     986      176     177     179
     536     537     539      827     829     831      891     893     894
     247     249     251      231     233     235      811     813     815
     261     263     264      537     539     540      953     955     956
     954     955     957       31      33      34      673     675     676
     562     563     564      658     659     661      961     963     965
     239     241     243      905     907     908      878     879     881
     103     105     106      285     287     289      102     103     104
     846     847     848      661     663     664       96      97      98
      44      45      46       90      91      92      499     501     503
     427     429     431      512     513     515      843     845     847
     645     647     648      580     581     582      578     579     581
     730     731     733      832     833     835      419     421     423
     144     145     146      708     709     711      488     489     491
     640     641     642      960     961     962      992     993     994
      54      55      57      486     487     488      521     523     524
     921     923     924      609     611     612      110     111     112
     532     533     534      705     707     709      415     417     418
     929     931     932      702     703     705      978     979     981
     612     613     615      677     679     681      786     787     789
      36      37      39      180     181     182      540     541     542
     997     999    1000      107     109     111      467     469     471
     655     657     659      365     367     369      162     163     164
     557     559     560      322     323     325       27      29      31
     248     249     251      733     735     737      330     331     332
     269     271     272      320     321     322      666     667     669
     234     235     236       17      19      21      477     479     481
     392     393     394      956     957     958      539     541     542
     736     737     738      196     197     199       40      41      42
     593     595     596      303     305     306      161     163     164
     880     881     883      684     685     686      151     153     155
     280     281     283      770     771     772      516     517     518
     641     643     645      221     223     225      790     791     793
     287     289     291       32      33      35      860     861     863
     526     527     529      955     957     958       33      35      36
     420     421     423      934     935     937      917     919     921
     147     149     151      717     719     720      615     617     618
     935     937     938       85      87      89       93      95      96
     146     147     148      215     217     219      925     927     929
     772     773     775       56      57      59      247     249     250
     523     525     526      473     475     477      560     561     562
     497     499     500      157     159     160      901     903     904
      64      65      67      293     295     296      417     419     420
     966     967     968      543     545     547      283     285     287
       8       9      11      551     553     554      598     599     601
     154     155     156      742     743     744      348     349     351
     586     587     588      686     687     689      379     381     383
     830     831     833       29      31      33      861     863     865
     668     669     671      142     143     144      965     967     968
      37      39      40       98      99     101      958     959     960
     884     885     887      937     939     941       57      59      61
     323     325     326      722     723     725      585     587     588
     866     867     868      358     359     360      667     669     670
     288     289     291      633     635     637      153     155     157
      99     101     102      792     793     795      922     923     924
     475     477     478      502     503     505      385     387     388
     422     423     425      847     849     851      354     355     356
      47      49      50      881     883     884      216     217     219
     305     307     308      493     495     497      654     655     657
     664     665     667      694     695     697      729     731     733
     882     883     885      232     233     234      791     793     794
     972     973     974      220     221     222      124     125     126
      53      55      57      271     273     275      969     971     973
      16      17      19      186     187     188      987     989     990
     149     151     153      890     891     893      788     789     791
     977     979     981      763     765     767      752     753     755
     403     405     406      553     555     556      212     213     215
      30      31      33      771     773     775      418     419     421
     478     479     481      862     863     865      670     671     672
     945     947     949      508     509     510      665     667     669
     726     727     728      933     935     936      333     335     337
     454     455     457      225     227     229      863     865     866
     544     545     546      471     473     475      581     583     585
     644     645     647      796     797     799      121     123     124
     129     131     133      669     671     672      757     759     760
     789     791     793      368     369     370      582     583     584
     683     685     686      920     921     923      723     725     726
      88      89      91      218     219     221      834     835     837
     793     795     796      974     975     976      983     985     987
     505     507     508      361     363     364       89      91      92
     476     477     479      374     375     377      962     963     965
     404     405     406      812     813     815      558     559     561
      55      57      59      549     551     553      125     127     129
     313     315     317      618     619     621      979     981     983
     940     941     942      592     593     594      170     171     172
     101     103     105      739     741     742      262     263     265
     485     487     488      378     379     381      347     349     351
     296     297     299      328     329     331      800     801     802
     509     511     513      886     887     889      179     181     182
     727     729     731      625     627     629      998     999    1000
     439     441     442      230     231     232      266     267     268
     527     529     530      872     873     874      351     353     354
     383     385     387      148     149     150       94      95      97
     913     915     917      614     615     617        3       5       6
     175     177     178      530     531     532      300     301     302
     166     167     168      735     737     738      138     139     140
     761     763     765      563     565     566      783     785     787
      74      75      76      334     335     336       13      15      17
     907     909     911      319     321     323      490     491     493
     994     995     996      130     131     132      985     987     989
     622     623     624      858     859     860      267     269     270
      50      51      53      696     697     698      200     201     202
     152     153     155      896     897     899      794     795     797
     127     129     131      760     761     763      184     185     187
     423     425     426      766     767     769      145     147     148
     182     183     184      458     459     460      950     951     952
     594     595     596      109     111     113      515     517     519
     774     775     777      961     963     964      993     995     996
     377     379     380      813     815     816      951     953     955
     732     733     734      554     555     557      775     777     778
     111     113     114      336     337     339       34      35      36
     394     395     396      228     229     231      802     803     804
     315     317     319      740     741     743      991     993     995
     453     455     457      181     183     184      474     475     477
     172     173     174      741     743     744      274     275     277
     301     303     305       11      13      14      559     561     563
     795     797     799      401     403     404      672     673     674
     393     395     396      590     591     592      511     513     515
     366     367     369      599     601     603      648     649     650
     957     959     960      546     547     548      155     157     158
     852     853     855      198     199     201      728     729     730
     707     709     711      656     657     658      865     867     868
       4       5       7       76      77      78       66      67      68
     426     427     428      381     383     384      133     135     137
     798     799     800      279     281     282        1       3       4
     725     727     729      489     491     492      564     565     567
     935     937     939      141     143     145      437     439     440
     779     781     782      660     661     662      525     527     528
     552     553     555      780     781     783      932     933     934
     128     129     131      785     787     789      778     779     780
      35      37      39      762     763     764      342     343     345
     233     235     236      491     493     494      219     221     222
     104     105     107      256     257     258      400     401     402
     617     619     621      183     185     187      744     745     746
     848     849     851      688     689     691      177     179     181
     815     817     818      561     563     564      748     749     751
      14      15      16      397     399     401      814     815     816
     150     151     152      185     187     188      767     769     770
     159     161     163      524     525     526      295     297     299
     317     319     321      630     631     633      223     225     226
     885     887     889      255     257     258      642     643     645
      77      79      80      743     745     746      386     387     389
     868     869     870      360     361     362      528     529     531
     284     285     287      507     509     510      534     535     537
       8       9      10      456     457     458      674     675     676
     569     571     572      513     515     517      601     603     605
     324     325     327      440     441     443      939     941     943
     822     823     824      568     569     570      720     721     722
     201     203     204      749     751     753      921     923     925
     495     497     499      867     869     870      808     809     811
       6       7       9      359     361     362      222     223     224
     628     629     630      787     789     790        7       9      10
     367     369     370      566     567     569      206     207     208
     693     695     696      692     693     694      188     189     190
     759     761     763      115     117     119       26      27      28
     260     261     263      803     805     806      973     975     976
     258     259     260      164     165     166      781     783     784
     679     681     683      818     819     820      850     851     853
     604     605     606      745     747     749      646     647     648
     583     585     587      675     677     678      318     319     321
     187     189     190      161     163     165      343     345     346
     833     835     837      731     733     735      918     919     921
     816     817     819      169     171     172      113     115     117
      45      47      49      817     819     820      870     871     872
     562     563     565      444     445     446      362     363     364
     371     373     375       22      23      24      799     801     802
     500     501     502      888     889     891       96      97      99
     229     231     232      442     443     445      410     411     412
     387     389     390      398     399     400      570     571     572
     928     929     931      136     137     139      497     499     501
     443     445     446      285     287     288      194     195     196
     157     159     161      901     903     905      407     409     411
     144     145     147      375     377     379      534     535     536
     499     501     502      784     785     786      264     265     266
     640     641     643      960     961     963       75      77      78
     191     193     195      551     553     555      449     451     453
     110     111     113      532     533     535      620     621     623
     750     751     752      588     589     590      180     181     183
     245     247     249      540     541     543      783     785     786
     820     821     822      165     167     169      747     749     751
     162     163     165      804     805     807      585     587     589
     677     679     680      330     331     333      320     321     323
     234     235     237      480     481     483      457     459     460
     376     377     378      392     393     395      874     875     876
     249     251     253      171     173     174      289     291     293
     390     391     392      712     713     714      733     735     736
      40      41      43      278     279     280      385     387     389
     446     447     448      857     859     861      373     375     377
     871     873     875      684     685     687      516     517     519
     970     971     973      801     803     804      791     793     795
     574     575     576      207     209     210      173     175     176
     412     413     414      855     857     858      971     973     974
     326     327     328       19      21      23      898     899     900
      18      19      20      277     279     280      825     827     829
     571     573     575       71      73      75      353     355     356
     631     633     635      776     777     778      167     169     170
     698     699     700      202     203     204      608     609     610
     602     603     604      137     139     140       65      67      68
     425     427     428      462     463     465      753     755     757
     928     929     930      680     681     683      335     337     338
     622     623     625      966     967     969      695     697     699
     517     519     521      696     697     699      662     663     664
     145     147     149      238     239     240      652     653     654
     967     969     970      589     591     593      613     615     616
     586     587     589      519     521     522      601     603     604
     806     807     809      659     661     663      877     879     881
     121     123     125      828     829     830      459     461     462
     450     451     452       41      43      44      634     635     636
     302     303     304      496     497     498      805     807     808
     713     715     717      866     867     869      331     333     334
     358     359     361      268     269     270      447     449     451
      25      27      29      243     245     247       57      59      60
      43      45      46      837     839     841      704     705     706
     838     839     841      413     415     417      633     635     636
     501     503     505      672     673     675      135     137     139
      52      53      54      270     271     272      232     233     235
     839     841     842      466     467     468      482     483     485
     364     365     366      199     201     203      972     973     975
     553     555     557      591     593     594      220     221     223
     251     253     255      847     849     850      700     701     702
     522     523     524      124     125     127      626     627     629
     186     187     189      619     621     623      627     629     630
      97      99     101      252     253     254      210     211     212
     179     181     183      455     457     459      429     431     433
     969     971     972      224     225     226      567     569     571
     912     913     914      355     357     359      213     215     217
     623     625     626      508     509     511      784     785     787
     533     535     536        3       5       7      452     453     454
     587     589     590      299     301     302      202     203     205
     428     429     431      498     499     500      807     809     810
     460     461     463      842     843     844      851     853     855
     691     693     695      769     771     773      597     599     600
     352     353     354      257     259     261      129     131     132
     709     711     712      282     283     284       79      81      83
     209     211     213      630     631     632      782     783     784
     290     291     292      974     975     977      217     219     221
     448     449     450      676     677     678      835     837     839
     404     405     407      823     825     826      756     757     759
     106     107     108      813     815     817      711     713     715
     402     403     404      205     207     209      538     539     541
     479     481     482      244     245     246      940     941     943
     405     407     408      592     593     595      650     651     653
     170     171     173      253     255     257      892     893     895
     241     243     245      883     885     887      189     191     192
     465     467     468       11      13      15      464     465     466
     259     261     262      577     579     580      579     581     583
     286     287     288      947     949     951      872     873     875
     510     511     512      819     821     822      647     649     650
     430     431     432      637     639     641      572     573     574
     518     519     520      865     867     869      148     149     151
      28      29      31      357     359     361      265     267     268
     625     627     628      916     917     918      246     247     249
     853     855     857      345     347     349      530     531     533
      84      85      86        5       7       9      300     301     303
     166     167     169       29      31      32      416     417     419
     701     703     704      138     139     141      203     205     206
     472     473     474       74      75      77       81      83      85
      48      49      50      292     293     294      398     399     401
     481     483     485      573     575     576      542     543     544
     889     891     893      130     131     133      219     221     223
      58      59      61      678     679     680      193     195     197
     469     471     473      858     859     861       83      85      86
     399     401     402      897     899     900      108     109     110
     200     201     203      389     391     393       59      61      62
     689     691     693      185     187     189      734     735     736
     435     437     439      297     299     300      182     183     185
     458     459     461      824     825     827      594     595     597
     738     739     740      697     699     700      255     257     259
      77      79      81      894     895     897      981     983     985
     595     597     598      325     327     329      276     277     278
     263     265     266      174     175     176      643     645     647
     109     111     112       34      35      37      394     395     397
     538     539     540      941     943     944      555     557     559
     651     653     654      304     305     307      949     951     953
     329     331     332       42      43      45      821     823     824
      69      71      73      395     397     398      718     719     721
     697     699     701      201     203     205      991     993     994
     719     721     722      809     811     812       87      89      91
     431     433     435      146     147     149      927     929     931
     845     847     849      590     591     593      685     687     689
     545     547     548      875     877     878      158     159     161
     648     649     651      826     827     828       97      99     100
      62      63      64      214     215     216      312     313     314
      76      77      79      681     683     684       66      67      69
     893     895     897      968     969     970      989     991     992
     483     485     487      156     157     158      575     577     578
     803     805     807      425     427     429      610     611     612
     660     661     663      714     715     717      932     933     935
      67      69      70      899     901     902      755     757     759
     715     717     718       51      53      54      944     945     946
     343     345     347      256     257     259      172     173     175
     400     401     403      332     333     334      309     311     312
      38      39      40      859     861     862      699     701     702
     975     977     978      963     965     967      308     309     310
     470     471     472       14      15      17      661     663     665
     879     881     883      139     141     143      238     239     241
     492     493     494      524     525     527      556     557     559
     183     185     186      943     945     946      799     801     803
     548     549     550       21      23      24      209     211     212
     163     165     166      663     665     666      653     655     656
     197     199     201      306     307     309      397     399     400
     895     897     898      906     907     908      868     869     871
     360     361     363      409     411     412      307     309     310
     911     913     914      914     915     917      433     435     437
     521     523     525      529     531     533      451     453     454
     706     707     708      982     983     984      415     417     419
     635     637     638      822     823     825      720     721     723
      54      55      56      272     273     274       63      65      67
     841     843     844      484     485     487      939     941     942
     704     705     707      557     559     561      649     651     652
     978     979     980      206     207     209      338     339     340
     269     271     273      773     775     777      902     903     904
     829     831     833      692     693     695      188     189     191
     346     347     348      438     439     441      380     381     382
     629     631     632       26      27      29      123     125     126
     457     459     461      258     259     261      900     901     903
     105     107     108      873     875     876      310     311     312
     721     723     725      646     647     649      503     505     507
     382     383     384      919     921     922      535     537     538
     955     957     959      946     947     948       33      35      37
     280     281     282      207     209     211      231     233     234
     102     103     105      846     847     849      421     423     425
     596     597     599       93      95      97      477     479     480
     362     363     365       90      91      93      506     507     508
     724     725     726      239     241     242      277     279     281
      22      23      25      363     365     366       49      51      52
      68      69      70      410     411     413       82      83      85
     100     101     102      417     419     421      869     871     872
     222     223     225      810     811     812      992     993     995
      65      67      69      843     845     846      194     195     197
     486     487     489      915     917     918      126     127     128
     275     277     279      463     465     467      264     265     267
     487     489     490      514     515     516      904     905     906
     613     615     617      831     833     835      607     609     611
     611     613     615      750     751     753      705     707     708
     541     543     544      314     315     316      980     981     982
     667     669     671      107     109     110      436     437     438
     956     957     959      606     607     608      378     379     380
     736     737     739      805     807     809      311     313     315
      27      29      30      245     247     248      777     779     781
     948     949     950      168     169     170      874     875     877
     737     739     740       44      45      47       47      49      51
     291     293     294       46      47      48      712     713     715
      10      11      12      278     279     281      918     919     920
     909     911     913      996     997     998      132     133     134
     151     153     154      839     841     843       60      61      62
     604     605     607      857     859     860      412     413     415
     349     351     352      140     141     142      326     327     329
     114     115     116      898     899     901       91      93      94
     546     547     549      327     329     331      917     919     920
     560     561     563      891     893     895      147     149     150
      70      71      73      776     777     779      616     617     618
     925     927     928      261     263     265      537     539     541
     834     835     836      698     699     701      953     955     957
      31      33      35      673     675     677      490     491     492
     964     965     966      176     177     178      473     475     476
     905     907     909      103     105     107      769     771     772
     396     397     398      742     743     745      543     545     546
     294     295     296      533     535     537      316     317     318
     662     663     665      652     653     655      324     325     326
     936     937     939      142     143     145      938     939     940
     587     589     591      645     647     649      797     799     801
     958     959     961      143     145     146      924     925     926
     861     863     864      227     229     231      828     829     831
     683     685     687      959     961     962       43      45      47
      73      75      76       92      93      94        7       9      11
     424     425     427      512     513     514      730     731     732
     211     213     214      609     611     613      922     923     925
     302     303     305      937     939     940      496     497     499
     505     507     509       89      91      93      708     709     710
     268     269     271      494     495     496      929     931     933
     281     283     284      923     925     926       18      19      21
     931     933     934      331     333     335      116     117     118
     786     787     788       36      37      38       52      53      55
     270     271     273      493     495     496      681     683     685
     466     467     469      364     365     367      545     547     549
     746     747     748      501     503     504      539     541     543
     700     701     703      908     909     910       16      17      18
     271     273     274      240     241     242      547     549     550
     303     305     307      439     441     443      632     633     634
     962     963     964      160     161     162      195     197     198
     670     671     673      977     979     980      714     715     716
     726     727     729      112     113     114      671     673     674
     988     989     991      224     225     227      647     649     651
     544     545     547      790     791     792      912     913     915
      38      39      41      120     121     122      926     927     928
     370     371     372      717     719     721      615     617     619
     429     431     432      655     657     658      952     953     954
     225     227     228      701     703     705       12      13      14
     213     215     216      368     369     371      498     499     501
     236     237     238      976     977     978      582     583     585
     842     843     845      293     295     297      369     371     372
     406     407     408      122     123     124      399     401     403
     190     191     192      550     551     552      282     283     285
     897     899     901      682     683     685      117     119     121
     388     389     390        2       3       4      782     783     785
     965     967     969       37      39      41      340     341     342
     676     677     679      775     777     779      686     687     688
     983     985     986      910     911     912       79      81      82
     106     107     109      527     529     531      478     479     480
     402     403     405      273     275     276      549     551     552
     125     127     128      584     585     586      835     837     838
      99     101     103      741     743     745      365     367     368
     629     631     633      475     477     479      722     723     724
     651     653     655      903     905     906      800     801     803
     329     331     333      101     103     104      288     289     290
     347     349     350       24      25      26      384     385     386
     230     231     233      856     857     858      305     307     309
     372     373     374      502     503     504      719     721     723
     327     329     330      809     811     813       78      79      80
     286     287     289      509     511     512      727     729     730
     381     383     385      510     511     513      287     289     290
       1       3       5      430     431     433      572     573     575
     518     519     521      903     905     907       39      41      42
     383     385     386      916     917     919      638     639     640
     947     949     950      913     915     916      408     409     410
     565     567     569      986     987     988      334     335     337
     403     405     407      724     725     727        9      11      12
     233     235     237      994     995     997       85      87      88
      15      17      19      761     763     764       67      69      71
     472     473     475      128     129     130      752     753     754
     995     997     998      131     133     134       48      49      51
     542     543     545       39      41      43      319     321     322
     678     679     681      862     863     864      863     865     867
     985     987     988      849     851     853      309     311     313
     108     109     111      127     129     130      193     195     196
     734     735     737      876     877     878      379     381     382
     995     997     999      163     165     167      515     517     518
     603     605     606      796     797     798      802     803     805
     723     725     727      987     989     991      435     437     438
     276     277     279      174     175     177      307     309     311
     930     931     932      793     795     797      576     577     578
      95      97      99       80      81      82      315     317     318
     441     443     445      981     983     984      242     243     244
      88      89      90      250     251     252      354     355     357
     298     299     300       20      21      22 

    1494 !NPHI
     258     257     259     260      978     977     979     980
      47      49      51      53      497     499     501     503
     927     929     931     933      957     959     961     963
     956     955     957     958      762     763     765     766
       7       9      11      13      206     205     207     208
     844     845     847     848      902     901     903     904
       2       1       3       4      636     637     639     640
     149     151     153     155       48      47      49      50
     120     119     121     122      361     363     365     367
     650     649     651     652      124     125     127     128
     922     923     925     926      416     417     419     420
     753     755     757     759      327     329     331     333
     938     939     941     942      779     781     783     785
     707     709     711     713      985     987     989     991
     870     871     873     874      595     597     599     601
     116     117     119     120      968     969     971     972
     542     543     545     546      725     727     729     731
     760     761     763     764      462     463     465     466
     970     971     973     974      916     917     919     920
     988     987     989     990      514     513     515     516
      33      35      37      39      934     933     935     936
     127     129     131     133       42      41      43      44
     126     125     127     128      302     303     305     306
     298     299     301     302      681     683     685     687
     450     449     451     452      478     477     479     480
     554     555     557     558        9      11      13      15
     981     983     985     987      607     609     611     613
     771     773     775     777      557     559     561     563
     546     545     547     548       94      95      97      98
     726     727     729     730      950     949     951     952
      97      99     101     103      396     397     399     400
     188     189     191     192      216     217     219     220
     547     549     551     553       21      23      25      27
     709     711     713     715      264     263     265     266
     791     793     795     797      614     615     617     618
     818     817     819     820      139     141     143     145
      99     101     103     105      755     757     759     761
     363     365     367     369      692     691     693     694
      10       9      11      12      404     403     405     406
     336     337     339     340      655     657     659     661
     176     177     179     180      672     671     673     674
     514     515     517     518      569     571     573     575
     784     785     787     788      654     653     655     656
      63      65      67      69       20      19      21      22
     956     957     959     960      488     487     489     490
     460     459     461     462      964     963     965     966
      17      19      21      23      950     951     953     954
     592     593     595     596      675     677     679     681
     972     973     975     976      778     777     779     780
     566     565     567     568      732     731     733     734
     936     935     937     938      603     605     607     609
     518     517     519     520      910     909     911     912
     722     721     723     724      226     227     229     230
     103     105     107     109      131     133     135     137
     526     525     527     528      894     895     897     898
     752     753     755     756      429     431     433     435
     216     215     217     218      624     625     627     628
     315     317     319     321      585     587     589     591
     314     313     315     316      291     293     295     297
     212     211     213     214      584     583     585     586
     482     481     483     484      510     509     511     512
     241     243     245     247      773     775     777     779
     944     945     947     948      297     299     301     303
     458     459     461     462      549     551     553     555
     810     809     811     812      448     449     451     452
     850     849     851     852      793     795     797     799
     821     823     825     827      332     331     333     334
     238     237     239     240      420     419     421     422
     344     343     345     346      335     337     339     341
     734     735     737     738      713     715     717     719
     450     451     453     454      453     455     457     459
     820     819     821     822      619     621     623     625
     610     609     611     612      823     825     827     829
     334     333     335     336      544     545     547     548
     794     793     795     796      506     507     509     510
     451     453     455     457      324     323     325     326
     846     847     849     850      377     379     381     383
     286     287     289     290      261     263     265     267
     872     873     875     876      886     887     889     890
     972     971     973     974      859     861     863     865
     704     703     705     706      322     321     323     324
      82      81      83      84      857     859     861     863
      90      89      91      92      928     929     931     932
     958     959     961     962      146     147     149     150
      12      11      13      14      360     359     361     362
     500     501     503     504      735     737     739     741
     594     595     597     598      466     467     469     470
     677     679     681     683      501     503     505     507
     974     975     977     978      435     437     439     441
     264     265     267     268      884     885     887     888
     921     923     925     927      714     713     715     716
     228     229     231     232      920     919     921     922
      32      33      35      36      887     889     891     893
     838     837     839     840      200     201     203     204
     382     383     385     386      218     217     219     220
     274     273     275     276      304     305     307     308
     734     733     735     736      344     345     347     348
     460     461     463     464      494     495     497     498
     671     673     675     677      646     647     649     650
     828     829     831     832      908     909     911     912
     772     773     775     776      143     145     147     149
      54      55      57      58      405     407     409     411
     913     915     917     919      422     421     423     424
     337     339     341     343      911     913     915     917
     796     795     797     798      498     497     499     500
     724     725     727     728      290     289     291     292
     102     101     103     104       13      15      17      19
     500     499     501     502      276     277     279     280
     659     661     663     665      875     877     879     881
     104     103     105     106      980     979     981     982
     874     873     875     876      952     951     953     954
     236     237     239     240      629     631     633     635
     651     653     655     657      238     239     241     242
     474     475     477     478      820     821     823     824
     355     357     359     361      201     203     205     207
     598     599     601     602      895     897     899     901
     122     121     123     124      299     301     303     305
     842     843     845     846       41      43      45      47
     210     209     211     212      546     547     549     550
     412     413     415     416      330     331     333     334
      34      35      37      38      175     177     179     181
     530     529     531     532      385     387     389     391
      87      89      91      93      790     791     793     794
     704     705     707     708      572     571     573     574
     384     383     385     386      804     803     805     806
     163     165     167     169      918     917     919     920
     372     371     373     374      296     297     299     300
     747     749     751     753      564     563     565     566
     756     755     757     758      749     751     753     755
     777     779     781     783      553     555     557     559
     590     589     591     592      540     541     543     544
      56      57      59      60      272     273     275     276
     407     409     411     413       16      17      19      20
     698     699     701     702      731     733     735     737
     937     939     941     943      872     871     873     874
     268     269     271     272      959     961     963     965
     877     879     881     883      445     447     449     451
     663     665     667     669      986     987     989     990
     364     363     365     366      170     169     171     172
     711     713     715     717      741     743     745     747
     274     275     277     278      240     241     243     244
     794     795     797     798      126     127     129     130
     144     143     145     146      796     797     799     800
     266     265     267     268      290     291     293     294
     102     103     105     106      428     429     431     432
      61      63      65      67      202     201     203     204
     844     843     845     846      280     281     283     284
     980     981     983     984      892     891     893     894
     792     793     795     796       90      91      93      94
     386     385     387     388      806     805     807     808
     192     191     193     194      633     635     637     639
     282     283     285     286      545     547     549     551
      58      57      59      60       57      59      61      63
     723     725     727     729      808     807     809     810
     620     619     621     622      217     219     221     223
     938     937     939     940      710     711     713     714
     199     201     203     205      616     617     619     620
       3       5       7       9      454     453     455     456
     134     135     137     138      457     459     461     463
     700     701     703     704      189     191     193     195
      79      81      83      85      419     421     423     425
     720     719     721     722      892     893     895     896
     339     341     343     345      583     585     587     589
      40      39      41      42      564     565     567     568
     447     449     451     453      824     823     825     826
     638     637     639     640      748     747     749     750
     693     695     697     699      611     613     615     617
     552     553     555     556      476     475     477     478
     842     841     843     844      490     489     491     492
     744     745     747     748       72      71      73      74
     526     527     529     530      826     827     829     830
     691     693     695     697      964     965     967     968
     909     911     913     915      600     599     601     602
     314     315     317     318      808     809     811     812
     358     357     359     360      491     493     495     497
     227     229     231     233      764     763     765     766
     761     763     765     767      635     637     639     641
     477     479     481     483      922     921     923     924
     954     955     957     958       60      59      61      62
     142     143     145     146       31      33      35      37
     578     579     581     582       30      29      31      32
     700     699     701     702      303     305     307     309
     475     477     479     481      406     407     409     410
     864     865     867     868      136     137     139     140
     459     461     463     465      191     193     195     197
     589     591     593     595      702     701     703     704
     110     111     113     114      806     807     809     810
     674     673     675     676      184     183     185     186
     525     527     529     531       58      59      61      62
      25      27      29      31       76      75      77      78
     169     171     173     175      962     961     963     964
     235     237     239     241      780     781     783     784
     499     501     503     505      234     233     235     236
     130     129     131     132       75      77      79      81
     811     813     815     817      129     131     133     135
      23      25      27      29      644     645     647     648
      22      21      23      24      941     943     945     947
      76      77      79      80      718     719     721     722
     746     747     749     750      528     527     529     530
     519     521     523     525      522     521     523     524
     904     905     907     908      263     265     267     269
     579     581     583     585      254     253     255     256
     282     281     283     284      257     259     261     263
     861     863     865     867      493     495     497     499
     256     255     257     258      284     283     285     286
     810     811     813     814      636     635     637     638
      70      71      73      74      468     469     471     472
     321     323     325     327      357     359     361     363
     988     989     991     992       98      99     101     102
     118     119     121     122      686     685     687     688
     115     117     119     121      977     979     981     983
     444     445     447     448      910     911     913     914
     516     515     517     518       35      37      39      41
     703     705     707     709      248     247     249     250
     919     921     923     925      345     347     349     351
     818     819     821     822      805     807     809     811
      34      33      35      36      379     381     383     385
     278     277     279     280      866     867     869     870
     863     865     867     869      410     411     413     414
     974     973     975     976      676     675     677     678
     706     705     707     708      952     953     955     956
     226     225     227     228       60      61      63      64
     243     245     247     249      742     741     743     744
     123     125     127     129      527     529     531     533
     608     607     609     610      622     623     625     626
     206     207     209     210        4       5       7       8
     672     673     675     676      534     535     537     538
      78      77      79      80      210     211     213     214
     392     393     395     396      533     535     537     539
     716     717     719     720      582     583     585     586
     365     367     369     371      266     267     269     270
     597     599     601     603      664     665     667     668
     158     159     161     162      372     373     375     376
     312     311     313     314      488     489     491     492
     172     171     173     174      778     779     781     782
     687     689     691     693       39      41      43      45
      92      91      93      94      286     285     287     288
     221     223     225     227      599     601     603     605
     689     691     693     695      461     463     465     467
     990     989     991     992      871     873     875     877
     288     287     289     290      360     361     363     364
     688     687     689     690      259     261     263     265
     415     417     419     421      979     981     983     985
     336     335     337     338      963     965     967     969
     414     415     417     418      873     875     877     879
     332     333     335     336      110     109     111     112
     408     407     409     410      948     947     949     950
     792     791     793     794      624     623     625     626
     502     501     503     504      868     867     869     870
     752     751     753     754      780     779     781     782
     114     113     115     116      541     543     545     547
     364     365     367     368       14      13      15      16
     170     171     173     174      759     761     763     765
     540     539     541     542      154     153     155     156
     915     917     919     921      512     511     513     514
     317     319     321     323      211     213     215     217
     278     279     281     282      891     893     895     897
     618     617     619     620      316     315     317     318
     606     607     609     610      561     563     565     567
     674     675     677     678      319     321     323     325
     117     119     121     123      890     889     891     892
     581     583     585     587      774     773     775     776
     560     559     561     562      508     509     511     512
     907     909     911     913      318     317     319     320
     422     423     425     426       20      21      23      24
     108     107     109     110      563     565     567     569
     395     397     399     401      639     641     643     645
     562     561     563     564       56      55      57      58
     882     883     885     886      448     447     449     450
     442     441     443     444      668     669     671     672
     816     815     817     818      233     235     237     239
      94      93      95      96      601     603     605     607
     762     761     763     764      556     557     559     560
     124     123     125     126      417     419     421     423
     180     181     183     184      505     507     509     511
      91      93      95      97      694     695     697     698
     840     839     841     842      373     375     377     379
     197     199     201     203      604     605     607     608
     356     355     357     358      638     639     641     642
     954     953     955     956      543     545     547     549
     673     675     677     679       16      15      17      18
     623     625     627     629      542     541     543     544
      18      19      21      22      917     919     921     923
     688     689     691     692       32      31      33      34
     814     813     815     816      660     659     661     662
     788     787     789     790      756     757     759     760
     214     213     215     216       36      37      39      40
     828     827     829     830       54      53      55      56
     270     269     271     272      590     591     593     594
     213     215     217     219      166     167     169     170
     516     517     519     520      776     775     777     778
     397     399     401     403      769     771     773     775
     567     569     571     573      854     853     855     856
     883     885     887     889       30      31      33      34
     389     391     393     395      630     629     631     632
     352     351     353     354      822     823     825     826
     560     561     563     564      904     903     905     906
      72      73      75      76      285     287     289     291
     885     887     889     891      391     393     395     397
     182     181     183     184      467     469     471     473
      74      75      77      78      390     389     391     392
     848     847     849     850      610     611     613     614
     851     853     855     857      637     639     641     643
     657     659     661     663      260     261     263     264
     710     709     711     712      232     233     235     236
     558     559     561     562      442     443     445     446
     686     687     689     690      625     627     629     631
     301     303     305     307      234     235     237     238
     248     249     251     252      826     825     827     828
     816     817     819     820      834     833     835     836
     973     975     977     979      544     543     545     546
     249     251     253     255      434     435     437     438
     790     789     791     792      517     519     521     523
      83      85      87      89      684     685     687     688
     308     309     311     312      254     255     257     258
     272     271     273     274      369     371     373     375
     168     169     171     172      284     285     287     288
      49      51      53      55      368     367     369     370
     588     589     591     592      268     267     269     270
      53      55      57      59      721     723     725     727
     653     655     657     659      209     211     213     215
     106     107     109     110      352     353     355     356
     670     669     671     672      214     215     217     218
     530     531     533     534      830     831     833     834
     620     621     623     624      481     483     485     487
     776     777     779     780      906     905     907     908
     104     105     107     108      138     139     141     142
     159     161     163     165      145     147     149     151
     469     471     473     475      158     157     159     160
     262     263     265     266      612     613     615     616
      73      75      77      79      468     467     469     470
     100     101     103     104      388     387     389     390
     231     233     235     237      222     223     225     226
     140     139     141     142      466     465     467     468
     426     427     429     430      867     869     871     873
     223     225     227     229      866     865     867     868
     410     409     411     412      896     897     899     900
     924     925     927     928      383     385     387     389
     951     953     955     957      390     391     393     394
     848     849     851     852       86      87      89      90
     649     651     653     655      382     381     383     384
     652     651     653     654      310     311     313     314
     353     355     357     359      916     915     917     918
      44      45      47      48      830     829     831     832
     858     857     859     860      889     891     893     895
     788     789     791     792      860     859     861     862
     518     519     521     522      908     907     909     910
     772     771     773     774      109     111     113     115
     605     607     609     611      914     913     915     916
     108     109     111     112      185     187     189     191
      81      83      85      87      716     715     717     718
     705     707     709     711      768     767     769     770
     682     681     683     684       43      45      47      49
     732     733     735     736      484     485     487     488
     289     291     293     295      566     567     569     570
     456     457     459     460      471     473     475     477
     470     469     471     472      966     967     969     970
     662     663     665     666      473     475     477     479
      50      51      53      54      845     847     849     851
     990     991     993     994      148     147     149     150
     472     471     473     474      717     719     721     723
     236     235     237     238      418     417     419     420
     366     367     369     370      521     523     525     527
     333     335     337     339      630     631     633     634
     744     743     745     746      125     127     129     131
     740     741     743     744      795     797     799     801
     283     285     287     289      328     327     329     330
     596     595     597     598      436     435     437     438
     878     879     881     882      412     411     413     414
     432     433     435     436      898     899     901     902
     926     927     929     930       89      91      93      95
     402     401     403     404      548     549     551     552
     850     851     853     854      394     395     397     398
     656     655     657     658      388     389     391     392
     142     141     143     144      414     413     415     416
     150     151     153     154       27      29      31      33
     140     141     143     144      302     301     303     304
     697     699     701     703      648     647     649     650
     212     213     215     216      520     521     523     524
     658     657     659     660      577     579     581     583
     942     943     945     946      881     883     885     887
     455     457     459     461      994     993     995     996
     187     189     191     193      215     217     219     221
     269     271     273     275      667     669     671     673
     754     755     757     758      186     185     187     188
     270     271     273     274      430     429     431     432
     486     487     489     490      802     801     803     804
     237     239     241     243      586     585     587     588
     930     929     931     932      858     859     861     862
     208     207     209     210      960     959     961     962
     273     275     277     279      534     533     535     536
     172     173     175     176      664     663     665     666
     986     985     987     988      374     375     377     378
     932     931     933     934      309     311     313     315
     719     721     723     725      660     661     663     664
     718     717     719     720      746     745     747     748
     742     743     745     746      797     799     801     803
     183     185     187     189      989     991     993     995
     157     159     161     163      955     957     959     961
     200     199     201     202      288     289     291     292
     150     149     151     152      880     881     883     884
     280     279     281     282      230     229     231     232
     424     425     427     428      573     575     577     579
     470     471     473     474      784     783     785     786
     196     197     199     200      815     817     819     821
     843     845     847     849      680     681     683     684
     714     715     717     718      838     839     841     842
     118     117     119     120      137     139     141     143
     416     415     417     418      444     443     445     446
     819     821     823     825      440     441     443     444
     580     581     583     584       29      31      33      35
     452     451     453     454      976     977     979     980
      93      95      97      99      244     243     245     246
     632     633     635     636      596     597     599     600
     300     299     301     302      224     225     227     228
     326     327     329     330      933     935     937     939
     436     437     439     440      182     183     185     186
     996     995     997     998      354     353     355     356
     669     671     673     675      190     191     193     194
     218     219     221     222      824     825     827     828
      95      97      99     101      679     681     683     685
      80      79      81      82       28      27      29      30
     536     537     539     540      490     491     493     494
     346     347     349     350      618     619     621     622
     648     649     651     652      666     665     667     668
     203     205     207     209      886     885     887     888
     650     651     653     654      600     601     603     604
     994     995     997     998       74      73      75      76
     836     835     837     838      800     801     803     804
     936     937     939     940      586     587     589     590
     162     163     165     166      774     775     777     778
     575     577     579     581      522     523     525     526
     932     933     935     936      520     519     521     522
     934     935     937     938      437     439     441     443
     356     357     359     360      255     257     259     261
     411     413     415     417      975     977     979     981
     439     441     443     445      403     405     407     409
     202     203     205     206      300     301     303     304
     504     505     507     508      524     523     525     526
     812     811     813     814      230     231     233     234
     449     451     453     455      111     113     115     117
     864     863     865     866       11      13      15      17
     252     251     253     254      757     759     761     763
      88      87      89      90      194     195     197     198
     320     321     323     324      971     973     975     977
     246     245     247     248      538     539     541     542
     121     123     125     127      240     239     241     242
     962     963     965     966      604     603     605     606
     348     349     351     352      696     697     699     700
      26      25      27      28      750     751     753     754
     348     347     349     350      621     623     625     627
     244     245     247     248      812     813     815     816
     128     127     129     130        2       3       5       6
     207     209     211     213      408     409     411     412
     381     383     385     387      814     815     817     818
     996     997     999    1000      340     339     341     342
     983     985     987     989      198     197     199     200
     559     561     563     565      982     981     983     984
     342     341     343     344      371     373     375     377
     370     369     371     372       68      67      69      70
     294     295     297     298      745     747     749     751
      78      79      81      82      733     735     737     739
     706     707     709     710      739     741     743     745
     476     477     479     480      658     659     661     662
     836     837     839     840      738     737     739     740
     766     765     767     768       96      97      99     100
     897     899     901     903      720     721     723     724
     834     835     837     838      896     895     897     898
     831     833     835     837      496     495     497     498
     413     415     417     419      310     309     311     312
     978     979     981     982      194     193     195     196
     685     687     689     691       96      95      97      98
     524     525     527     528      894     893     895     896
     271     273     275     277      770     769     771     772
     574     575     577     578       48      49      51      52
     168     167     169     170        8       9      11      12
     760     759     761     762      350     351     353     354
     446     447     449     450      509     511     513     515
     350     349     351     352      594     593     595     596
     113     115     117     119      112     111     113     114
     428     427     429     430      294     293     295     296
     967     969     971     973      421     423     425     427
      19      21      23      25      876     875     877     878
     587     589     591     593      252     253     255     256
     662     661     663     664       88      89      91      92
     984     983     985     986      393     395     397     399
     562     563     565     566      645     647     649     651
     392     391     393     394      171     173     175     177
     246     247     249     250      852     853     855     856
     644     643     645     646      136     135     137     138
      12      13      15      16       70      69      71      72
     368     369     371     372       80      81      83      84
     832     831     833     834      905     907     909     911
     939     941     943     945      331     333     335     337
     612     611     613     614      626     625     627     628
     899     901     903     905      492     491     493     494
     798     799     801     802      914     915     917     918
     901     903     905     907      898     897     899     900
     340     341     343     344      770     771     773     774
     173     175     177     179      489     491     493     495
     151     153     155     157      179     181     183     185
     574     573     575     576      602     603     605     606
     178     177     179     180      399     401     403     405
     929     931     933     935      558     557     559     560
     928     927     929     930       68      69      71      72
     763     765     767     769      736     737     739     740
     960     961     963     964      576     577     579     580
     438     437     439     440      631     633     635     637
     813     815     817     819      692     693     695     696
     841     843     845     847      550     551     553     554
     362     363     365     366      511     513     515     517
     556     555     557     558      888     889     891     892
     378     377     379     380      789     791     793     795
     326     325     327     328      947     949     951     953
     504     503     505     506      279     281     283     285
     627     629     631     633      598     597     599     600
     870     869     871     872      267     269     271     273
     969     971     973     975      239     241     243     245
     298     297     299     300      647     649     651     653
     646     645     647     648      743     745     747     749
     398     399     401     402      856     857     859     860
     642     643     645     646      695     697     699     701
     130     131     133     134      296     295     297     298
     696     695     697     698      292     293     295     296
     446     445     447     448      690     689     691     692
     855     857     859     861       10      11      13      14
      15      17      19      21      903     905     907     909
     245     247     249     251      656     657     659     660
     198     199     201     202      342     343     345     346
      71      73      75      77      153     155     157     159
     181     183     185     187      984     985     987     988
     712     713     715     716      155     157     159     161
     152     151     153     154      180     179     181     182
     804     805     807     808      441     443     445     447
     862     861     863     864       42      43      45      46
     738     739     741     742      961     963     965     967
     626     627     629     630      492     493     495     496
     277     279     281     283        4       3       5       6
      18      17      19      20        1       3       5       7
     220     219     221     222      513     515     517     519
     783     785     787     789      515     517     519     521
      82      83      85      86      253     255     257     259
     949     951     953     955      204     203     205     206
     902     903     905     906      322     323     325     326
     591     593     595     597      281     283     285     287
       8       7       9      10      148     149     151     152
      64      65      67      68      220     221     223     224
     676     677     679     680      502     503     505     506
     825     827     829     831      920     921     923     924
     378     379     381     382      555     557     559     561
     105     107     109     111      699     701     703     705
     132     133     135     136      966     965     967     968
     426     425     427     428      884     883     885     886
     529     531     533     535      698     697     699     700
     729     731     733     735       45      47      49      51
     613     615     617     619      829     831     833     835
     701     703     705     707      684     683     685     686
     316     317     319     320      485     487     489     491
     945     947     949     951      484     483     485     486
     609     611     613     615      775     777     779     781
     822     821     823     824      944     943     945     946
     219     221     223     225      580     579     581     582
     192     193     195     196      260     259     261     262
     366     365     367     368      443     445     447     449
     232     231     233     234      550     549     551     552
     329     331     333     335      523     525     527     529
     740     739     741     742      427     429     431     433
     817     819     821     823      930     931     933     934
     454     455     457     458      311     313     315     317
     628     629     631     632      900     901     903     904
     452     453     455     456        6       5       7       8
     313     315     317     319      874     875     877     878
      85      87      89      91       38      37      39      40
      84      83      85      86      400     401     403     404
     323     325     327     329      228     227     229     230
      66      67      69      70      708     709     711     712
      66      65      67      68      141     143     145     147
     464     463     465     466      222     221     223     224
     588     587     589     590      164     163     165     166
     678     679     681     682      402     403     405     406
     341     343     345     347      570     569     571     572
     860     861     863     864      943     945     947     949
     328     329     331     332      512     513     515     516
     728     729     731     732      869     871     873     875
     726     725     727     728      942     941     943     944
     107     109     111     113      135     137     139     141
     722     723     725     726      404     405     407     408
     343     345     347     349      106     105     107     108
     968     967     969     970      265     267     269     271
     293     295     297     299      551     553     555     557
      51      53      55      57      487     489     491     493
     998     997     999    1000      295     297     299     301
     486     485     487     488      946     945     947     948
     338     337     339     340      482     483     485     486
     510     511     513     514      940     939     941     942
     565     567     569     571      935     937     939     941
     174     175     177     178      750     749     751     752
     640     641     643     644      854     855     857     858
      55      57      59      61      262     261     263     264
      67      69      71      73      359     361     363     365
     472     473     475     476      100      99     101     102
     552     551     553     554       28      29      31      32
     156     157     159     160      424     423     425     426
     799     801     803     805      205     207     209     211
     387     389     391     393       69      71      73      75
     912     913     915     916      798     797     799     800
      36      35      37      38      334     335     337     338
     349     351     353     355      847     849     851     853
     119     121     123     125      532     533     535     536
     418     419     421     422      661     663     665     667
     154     155     157     158      308     307     309     310
     876     877     879     880       98      97      99     100
     976     975     977     978      849     851     853     855
     420     421     423     424      184     185     187     188
     680     679     681     682      888     887     889     890
      86      85      87      88      839     841     843     845
     924     923     925     926      728     727     729     730
     766     767     769     770      652     653     655     656
     787     789     791     793      354     355     357     358
     431     433     435     437      144     145     147     148
     440     439     441     442      654     655     657     658
       6       7       9      10      768     769     771     772
     330     329     331     332      730     731     733     734
     204     205     207     208      386     387     389     390
     592     591     593     594      178     179     181     182
     406     405     407     408      785     787     789     791
     992     991     993     994      409     411     413     415
     196     195     197     198      147     149     151     153
     186     187     189     190      537     539     541     543
     320     319     321     322      991     993     995     997
      59      61      63      65      536     535     537     538
     464     465     467     468      748     749     751     752
     164     165     167     168      781     783     785     787
     670     671     673     674      532     531     533     534
     480     481     483     484       50      49      51      52
     430     431     433     434      801     803     805     807
      24      23      25      26       26      27      29      30
     800     799     801     802      803     805     807     809
     786     785     787     788      948     949     951     952
     946     947     949     950       44      43      45      46
     958     957     959     960       52      51      53      54
     906     907     909     910        5       7       9      11
     940     941     943     944      879     881     883     885
     496     497     499     500      665     667     669     671
     878     877     879     880      116     115     117     118
     782     781     783     784      380     379     381     382
     548     547     549     550      982     983     985     986
     423     425     427     429      926     925     927     928
     730     729     731     732      758     757     759     760
     846     845     847     848      128     129     131     132
     433     435     437     439      146     145     147     148
     305     307     309     311      434     433     435     436
     250     251     253     254      304     303     305     306
     682     683     685     686      690     691     693     694
     628     627     629     630      571     573     575     577
      38      39      41      42      622     621     623     624
     138     137     139     140      576     575     577     578
     683     685     687     689      256     257     259     260
     456     455     457     458      188     187     189     190
     208     209     211     212      539     541     543     545
     324     325     327     328      862     863     865     866
     538     537     539     540      242     241     243     244
     615     617     619     621      754     753     755     756
     568     567     569     570      614     613     615     616
     840     841     843     844      827     829     831     833
     617     619     621     623      758     759     761     762
     616     615     617     618      101     103     105     107
     702     703     705     706      195     197     199     201
     507     509     511     513      992     993     995     996
     376     377     379     380      401     403     405     407
     765     767     769     771      247     249     251     253
     367     369     371     373      584     585     587     588
     498     499     501     502      767     769     771     773
     160     161     163     164      880     879     881     882
     882     881     883     884      715     717     719     721
     634     633     635     636       22      23      25      26
     893     895     897     899      250     249     251     252
     325     327     329     331      425     427     429     431
     912     911     913     914      307     309     311     313
     480     479     481     482      306     305     307     308
      65      67      69      71      438     439     441     442
      64      63      65      66      229     231     233     235
     578     577     579     580      782     783     785     786
     479     481     483     485      258     259     261     262
     165     167     169     171      458     457     459     460
     987     989     991     993      190     189     191     192
     400     399     401     402       62      61      63      64
      52      53      55      56      133     135     137     139
     478     479     481     482      727     729     731     733
     346     345     347     348      122     123     125     126
     918     919     921     922       14      15      17      18
     276     275     277     278      120     121     123     124
     251     253     255     257      832     833     835     836
     865     867     869     871      807     809     811     813
     287     289     291     293      193     195     197     199
     833     835     837     839      528     529     531     532
     508     507     509     510      724     723     725     726
     786     787     789     790       84      85      87      88
     853     855     857     859      394     393     395     396
     641     643     645     647      506     505     507     508
     852     851     853     854      242     243     245     246
     640     639     641     642      152     153     155     156
     931     933     935     937      568     569     571     572
     370     371     373     374      668     667     669     670
     162     161     163     164       46      47      49      50
     531     533     535     537      835     837     839     841
     554     553     555     556       37      39      41      43
     275     277     279     281       24      25      27      28
     923     925     927     929      900     899     901     902
     712     711     713     714      608     609     611     612
     802     803     805     806      503     505     507     509
     465     467     469     471      318     319     321     322
     694     693     695     696      351     353     355     357
     362     361     363     364      312     313     315     316
     495     497     499     501      737     739     741     743
     925     927     929     931      347     349     351     353
     494     493     495     496      736     735     737     738
      92      93      95      96      572     573     575     576
     634     635     637     638      375     377     379     381
     463     465     467     469      374     373     375     376
     462     461     463     464      606     605     607     608
     970     969     971     972      174     173     175     176
     358     359     361     362      225     227     229     231
     376     375     377     378      432     431     433     434
     993     995     997     999      764     765     767     768
     751     753     755     757      306     307     309     310
     483     485     487     489      112     113     115     116
     167     169     171     173      868     869     871     872
     161     163     165     167      593     595     597     599
     166     165     167     168      114     115     117     118
     965     967     969     971      678     677     679     680
     809     811     813     815      160     159     161     162
     837     839     841     843      384     385     387     388
     602     601     603     604      396     395     397     398
      62      63      65      66      708     707     709     710
      77      79      81      83      643     645     647     649
     132     131     133     134       46      45      47      48
     156     155     157     158      398     397     399     400
     642     641     643     644      856     855     857     858
     570     571     573     574      380     381     383     384
     134     133     135     136       40      41      43      44
     474     473     475     476      666     667     669     670
     224     223     225     226      292     291     293     294
     582     581     583     584      890     891     893     894
     632     631     633     634      953     955     957     959
     338     339     341     342      177     179     181     183
     535     537     539     541      176     175     177     178

       0 !NIMPHI


       0 !NDON: donors



       0 !NACC: acceptors



       0 !NNB

      0       0       0       0       0       0       0       0
      0       0       0       0       0       0       0       0
      0       0       0       0       0       0       0       0
      0       0       0       0       0       0       0       0
      0       0       0       0       0       0       0       0
      0       0       0       0       0       0       0       0
      0       0       0       0       0       0       0       0
      0       0       0       0       0       0       0       0
      0       0       0       0       0       0       0       0
      0       0       0       0       0       0       0       0
      0       0       0       0       0       0       0       0
      0       0       0       0       0       0       0       0
      0       0       0       0       0       0       0       0
      0       0       0       0       0       0       0       0
      0       0       0       0       0       0       0       0
      0       0       0       0       0       0       0       0
      0       0       0       0       0       0       0       0
      0       0       0       0       0       0       0       0
      0       0       0       0       0       0       0       0
      0       0       0       0       0       0       0       0
      0       0       0       0       0       0       0       0
      0       0       0       0       0       0       0       0
      0       0       0       0       0       0       0       0
      0       0       0       0       0       0       0       0
      0       0       0       0       0       0       0       0
      0       0       0       0       0       0       0       0
      0       0       0       0       0       0       0       0
      0       0       0       0       0       0       0       0
      0       0       0       0       0       0       0       0
      0       0       0       0       0       0       0       0
      0       0       0       0       0       0       0       0
      0       0       0       0       0       0       0       0
      0       0       0       0       0       0       0       0
      0       0       0       0       0       0       0       0
      0       0       0       0       0       0       0       0
      0       0       0       0       0       0       0       0
      0       0       0       0       0       0       0       0
      0       0       0       0       0       0       0       0
      0       0       0       0       0       0       0       0
      0       0       0       0       0       0       0       0
      0       0       0       0       0       0       0       0
      0       0       0       0       0       0       0       0
      0       0       0       0       0       0       0       0
      0       0       0       0       0       0       0       0
      0       0       0       0       0       0       0       0
      0       0       0       0       0       0       0       0
      0       0       0       0       0       0       0       0
      0       0       0       0       0       0       0       0
      0       0       0       0       0       0       0       0
      0       0       0       0       0       0       0       0
      0       0       0       0       0       0       0       0
      0       0       0       0       0       0       0       0
      0       0       0       0       0       0       0       0
      0       0       0       0       0       0       0       0
      0       0       0       0       0       0       0       0
      0       0       0       0       0       0       0       0
      0       0       0       0       0       0       0       0
      0       0       0       0       0       0       0       0
      0       0       0       0       0       0       0       0
      0       0       0       0       0       0       0       0
      0       0       0       0       0       0       0       0
      0       0       0       0       0       0       0       0
      0       0       0       0       0       0       0       0
      0       0       0       0       0       0       0       0
      0       0       0       0       0       0       0       0
      0       0       0       0       0       0       0       0
      0       0       0       0       0       0       0       0
      0       0       0       0       0       0       0       0
      0       0       0       0       0       0       0       0
      0       0       0       0       0       0       0       0
      0       0       0       0       0       0       0       0
      0       0       0       0       0       0       0       0
      0       0       0       0       0       0       0       0
      0       0       0       0       0       0       0       0
      0       0       0       0       0       0       0       0
      0       0       0       0       0       0       0       0
      0       0       0       0       0       0       0       0
      0       0       0       0       0       0       0       0
      0       0       0       0       0       0       0       0
      0       0       0       0       0       0       0       0
      0       0       0       0       0       0       0       0
      0       0       0       0       0       0       0       0
      0       0       0       0       0       0       0       0
      0       0       0       0       0       0       0       0
      0       0       0       0       0       0       0       0
      0       0       0       0       0       0       0       0
      0       0       0       0       0       0       0       0
      0       0       0       0       0       0       0       0
      0       0       0       0       0       0       0       0
      0       0       0       0       0       0       0       0
      0       0       0       0       0       0       0       0
      0       0       0       0       0       0       0       0
      0       0       0       0       0       0       0       0
      0       0       0       0       0       0       0       0
      0       0       0       0       0       0       0       0
      0       0       0       0       0       0       0       0
      0       0       0       0       0       0       0       0
      0       0       0       0       0       0       0       0
      0       0       0       0       0       0       0       0
      0       0       0       0       0       0       0       0
      0       0       0       0       0       0       0       0
      0       0       0       0       0       0       0       0
      0       0       0       0       0       0       0       0
      0       0       0       0       0       0       0       0
      0       0       0       0       0       0       0       0
      0       0       0       0       0       0       0       0
      0       0       0       0       0       0       0       0
      0       0       0       0       0       0       0       0
      0       0       0       0       0       0       0       0
      0       0       0       0       0       0       0       0
      0       0       0       0       0       0       0       0
      0       0       0       0       0       0       0       0
      0       0       0       0       0       0       0       0
      0       0       0       0       0       0       0       0
      0       0       0       0       0       0       0       0
      0       0       0       0       0       0       0       0
      0       0       0       0       0       0       0       0
      0       0       0       0       0       0       0       0
      0       0       0       0       0       0       0       0
      0       0       0       0       0       0       0       0
      0       0       0       0       0       0       0       0
      0       0       0       0       0       0       0       0
      0       0       0       0       0       0       0       0
      0       0       0       0       0       0       0       0
      0       0       0       0       0       0       0       0


       1       0 !NGRP

