PSF NAMD

       0 !NTITLE

    6400 !NATOM
       1 A       1          Ar      Ar      Ar      0.000000 39.950000
       2 A       2          Ar      Ar      Ar      0.000000 39.950000
       3 A       3          Ar      Ar      Ar      0.000000 39.950000
       4 A       4          Ar      Ar      Ar      0.000000 39.950000
       5 A       5          Ar      Ar      Ar      0.000000 39.950000
       6 A       6          Ar      Ar      Ar      0.000000 39.950000
       7 A       7          Ar      Ar      Ar      0.000000 39.950000
       8 A       8          Ar      Ar      Ar      0.000000 39.950000
       9 A       9          Ar      Ar      Ar      0.000000 39.950000
      10 A       10         Ar      Ar      Ar      0.000000 39.950000
      11 A       11         Ar      Ar      Ar      0.000000 39.950000
      12 A       12         Ar      Ar      Ar      0.000000 39.950000
      13 A       13         Ar      Ar      Ar      0.000000 39.950000
      14 A       14         Ar      Ar      Ar      0.000000 39.950000
      15 A       15         Ar      Ar      Ar      0.000000 39.950000
      16 A       16         Ar      Ar      Ar      0.000000 39.950000
      17 A       17         Ar      Ar      Ar      0.000000 39.950000
      18 A       18         Ar      Ar      Ar      0.000000 39.950000
      19 A       19         Ar      Ar      Ar      0.000000 39.950000
      20 A       20         Ar      Ar      Ar      0.000000 39.950000
      21 A       21         Ar      Ar      Ar      0.000000 39.950000
      22 A       22         Ar      Ar      Ar      0.000000 39.950000
      23 A       23         Ar      Ar      Ar      0.000000 39.950000
      24 A       24         Ar      Ar      Ar      0.000000 39.950000
      25 A       25         Ar      Ar      Ar      0.000000 39.950000
      26 A       26         Ar      Ar      Ar      0.000000 39.950000
      27 A       27         Ar      Ar      Ar      0.000000 39.950000
      28 A       28         Ar      Ar      Ar      0.000000 39.950000
      29 A       29         Ar      Ar      Ar      0.000000 39.950000
      30 A       30         Ar      Ar      Ar      0.000000 39.950000
      31 A       31         Ar      Ar      Ar      0.000000 39.950000
      32 A       32         Ar      Ar      Ar      0.000000 39.950000
      33 A       33         Ar      Ar      Ar      0.000000 39.950000
      34 A       34         Ar      Ar      Ar      0.000000 39.950000
      35 A       35         Ar      Ar      Ar      0.000000 39.950000
      36 A       36         Ar      Ar      Ar      0.000000 39.950000
      37 A       37         Ar      Ar      Ar      0.000000 39.950000
      38 A       38         Ar      Ar      Ar      0.000000 39.950000
      39 A       39         Ar      Ar      Ar      0.000000 39.950000
      40 A       40         Ar      Ar      Ar      0.000000 39.950000
      41 A       41         Ar      Ar      Ar      0.000000 39.950000
      42 A       42         Ar      Ar      Ar      0.000000 39.950000
      43 A       43         Ar      Ar      Ar      0.000000 39.950000
      44 A       44         Ar      Ar      Ar      0.000000 39.950000
      45 A       45         Ar      Ar      Ar      0.000000 39.950000
      46 A       46         Ar      Ar      Ar      0.000000 39.950000
      47 A       47         Ar      Ar      Ar      0.000000 39.950000
      48 A       48         Ar      Ar      Ar      0.000000 39.950000
      49 A       49         Ar      Ar      Ar      0.000000 39.950000
      50 A       50         Ar      Ar      Ar      0.000000 39.950000
      51 A       51         Ar      Ar      Ar      0.000000 39.950000
      52 A       52         Ar      Ar      Ar      0.000000 39.950000
      53 A       53         Ar      Ar      Ar      0.000000 39.950000
      54 A       54         Ar      Ar      Ar      0.000000 39.950000
      55 A       55         Ar      Ar      Ar      0.000000 39.950000
      56 A       56         Ar      Ar      Ar      0.000000 39.950000
      57 A       57         Ar      Ar      Ar      0.000000 39.950000
      58 A       58         Ar      Ar      Ar      0.000000 39.950000
      59 A       59         Ar      Ar      Ar      0.000000 39.950000
      60 A       60         Ar      Ar      Ar      0.000000 39.950000
      61 A       61         Ar      Ar      Ar      0.000000 39.950000
      62 A       62         Ar      Ar      Ar      0.000000 39.950000
      63 A       63         Ar      Ar      Ar      0.000000 39.950000
      64 A       64         Ar      Ar      Ar      0.000000 39.950000
      65 A       65         Ar      Ar      Ar      0.000000 39.950000
      66 A       66         Ar      Ar      Ar      0.000000 39.950000
      67 A       67         Ar      Ar      Ar      0.000000 39.950000
      68 A       68         Ar      Ar      Ar      0.000000 39.950000
      69 A       69         Ar      Ar      Ar      0.000000 39.950000
      70 A       70         Ar      Ar      Ar      0.000000 39.950000
      71 A       71         Ar      Ar      Ar      0.000000 39.950000
      72 A       72         Ar      Ar      Ar      0.000000 39.950000
      73 A       73         Ar      Ar      Ar      0.000000 39.950000
      74 A       74         Ar      Ar      Ar      0.000000 39.950000
      75 A       75         Ar      Ar      Ar      0.000000 39.950000
      76 A       76         Ar      Ar      Ar      0.000000 39.950000
      77 A       77         Ar      Ar      Ar      0.000000 39.950000
      78 A       78         Ar      Ar      Ar      0.000000 39.950000
      79 A       79         Ar      Ar      Ar      0.000000 39.950000
      80 A       80         Ar      Ar      Ar      0.000000 39.950000
      81 A       81         Ar      Ar      Ar      0.000000 39.950000
      82 A       82         Ar      Ar      Ar      0.000000 39.950000
      83 A       83         Ar      Ar      Ar      0.000000 39.950000
      84 A       84         Ar      Ar      Ar      0.000000 39.950000
      85 A       85         Ar      Ar      Ar      0.000000 39.950000
      86 A       86         Ar      Ar      Ar      0.000000 39.950000
      87 A       87         Ar      Ar      Ar      0.000000 39.950000
      88 A       88         Ar      Ar      Ar      0.000000 39.950000
      89 A       89         Ar      Ar      Ar      0.000000 39.950000
      90 A       90         Ar      Ar      Ar      0.000000 39.950000
      91 A       91         Ar      Ar      Ar      0.000000 39.950000
      92 A       92         Ar      Ar      Ar      0.000000 39.950000
      93 A       93         Ar      Ar      Ar      0.000000 39.950000
      94 A       94         Ar      Ar      Ar      0.000000 39.950000
      95 A       95         Ar      Ar      Ar      0.000000 39.950000
      96 A       96         Ar      Ar      Ar      0.000000 39.950000
      97 A       97         Ar      Ar      Ar      0.000000 39.950000
      98 A       98         Ar      Ar      Ar      0.000000 39.950000
      99 A       99         Ar      Ar      Ar      0.000000 39.950000
     100 A       100        Ar      Ar      Ar      0.000000 39.950000
     101 A       101        Ar      Ar      Ar      0.000000 39.950000
     102 A       102        Ar      Ar      Ar      0.000000 39.950000
     103 A       103        Ar      Ar      Ar      0.000000 39.950000
     104 A       104        Ar      Ar      Ar      0.000000 39.950000
     105 A       105        Ar      Ar      Ar      0.000000 39.950000
     106 A       106        Ar      Ar      Ar      0.000000 39.950000
     107 A       107        Ar      Ar      Ar      0.000000 39.950000
     108 A       108        Ar      Ar      Ar      0.000000 39.950000
     109 A       109        Ar      Ar      Ar      0.000000 39.950000
     110 A       110        Ar      Ar      Ar      0.000000 39.950000
     111 A       111        Ar      Ar      Ar      0.000000 39.950000
     112 A       112        Ar      Ar      Ar      0.000000 39.950000
     113 A       113        Ar      Ar      Ar      0.000000 39.950000
     114 A       114        Ar      Ar      Ar      0.000000 39.950000
     115 A       115        Ar      Ar      Ar      0.000000 39.950000
     116 A       116        Ar      Ar      Ar      0.000000 39.950000
     117 A       117        Ar      Ar      Ar      0.000000 39.950000
     118 A       118        Ar      Ar      Ar      0.000000 39.950000
     119 A       119        Ar      Ar      Ar      0.000000 39.950000
     120 A       120        Ar      Ar      Ar      0.000000 39.950000
     121 A       121        Ar      Ar      Ar      0.000000 39.950000
     122 A       122        Ar      Ar      Ar      0.000000 39.950000
     123 A       123        Ar      Ar      Ar      0.000000 39.950000
     124 A       124        Ar      Ar      Ar      0.000000 39.950000
     125 A       125        Ar      Ar      Ar      0.000000 39.950000
     126 A       126        Ar      Ar      Ar      0.000000 39.950000
     127 A       127        Ar      Ar      Ar      0.000000 39.950000
     128 A       128        Ar      Ar      Ar      0.000000 39.950000
     129 A       129        Ar      Ar      Ar      0.000000 39.950000
     130 A       130        Ar      Ar      Ar      0.000000 39.950000
     131 A       131        Ar      Ar      Ar      0.000000 39.950000
     132 A       132        Ar      Ar      Ar      0.000000 39.950000
     133 A       133        Ar      Ar      Ar      0.000000 39.950000
     134 A       134        Ar      Ar      Ar      0.000000 39.950000
     135 A       135        Ar      Ar      Ar      0.000000 39.950000
     136 A       136        Ar      Ar      Ar      0.000000 39.950000
     137 A       137        Ar      Ar      Ar      0.000000 39.950000
     138 A       138        Ar      Ar      Ar      0.000000 39.950000
     139 A       139        Ar      Ar      Ar      0.000000 39.950000
     140 A       140        Ar      Ar      Ar      0.000000 39.950000
     141 A       141        Ar      Ar      Ar      0.000000 39.950000
     142 A       142        Ar      Ar      Ar      0.000000 39.950000
     143 A       143        Ar      Ar      Ar      0.000000 39.950000
     144 A       144        Ar      Ar      Ar      0.000000 39.950000
     145 A       145        Ar      Ar      Ar      0.000000 39.950000
     146 A       146        Ar      Ar      Ar      0.000000 39.950000
     147 A       147        Ar      Ar      Ar      0.000000 39.950000
     148 A       148        Ar      Ar      Ar      0.000000 39.950000
     149 A       149        Ar      Ar      Ar      0.000000 39.950000
     150 A       150        Ar      Ar      Ar      0.000000 39.950000
     151 A       151        Ar      Ar      Ar      0.000000 39.950000
     152 A       152        Ar      Ar      Ar      0.000000 39.950000
     153 A       153        Ar      Ar      Ar      0.000000 39.950000
     154 A       154        Ar      Ar      Ar      0.000000 39.950000
     155 A       155        Ar      Ar      Ar      0.000000 39.950000
     156 A       156        Ar      Ar      Ar      0.000000 39.950000
     157 A       157        Ar      Ar      Ar      0.000000 39.950000
     158 A       158        Ar      Ar      Ar      0.000000 39.950000
     159 A       159        Ar      Ar      Ar      0.000000 39.950000
     160 A       160        Ar      Ar      Ar      0.000000 39.950000
     161 A       161        Ar      Ar      Ar      0.000000 39.950000
     162 A       162        Ar      Ar      Ar      0.000000 39.950000
     163 A       163        Ar      Ar      Ar      0.000000 39.950000
     164 A       164        Ar      Ar      Ar      0.000000 39.950000
     165 A       165        Ar      Ar      Ar      0.000000 39.950000
     166 A       166        Ar      Ar      Ar      0.000000 39.950000
     167 A       167        Ar      Ar      Ar      0.000000 39.950000
     168 A       168        Ar      Ar      Ar      0.000000 39.950000
     169 A       169        Ar      Ar      Ar      0.000000 39.950000
     170 A       170        Ar      Ar      Ar      0.000000 39.950000
     171 A       171        Ar      Ar      Ar      0.000000 39.950000
     172 A       172        Ar      Ar      Ar      0.000000 39.950000
     173 A       173        Ar      Ar      Ar      0.000000 39.950000
     174 A       174        Ar      Ar      Ar      0.000000 39.950000
     175 A       175        Ar      Ar      Ar      0.000000 39.950000
     176 A       176        Ar      Ar      Ar      0.000000 39.950000
     177 A       177        Ar      Ar      Ar      0.000000 39.950000
     178 A       178        Ar      Ar      Ar      0.000000 39.950000
     179 A       179        Ar      Ar      Ar      0.000000 39.950000
     180 A       180        Ar      Ar      Ar      0.000000 39.950000
     181 A       181        Ar      Ar      Ar      0.000000 39.950000
     182 A       182        Ar      Ar      Ar      0.000000 39.950000
     183 A       183        Ar      Ar      Ar      0.000000 39.950000
     184 A       184        Ar      Ar      Ar      0.000000 39.950000
     185 A       185        Ar      Ar      Ar      0.000000 39.950000
     186 A       186        Ar      Ar      Ar      0.000000 39.950000
     187 A       187        Ar      Ar      Ar      0.000000 39.950000
     188 A       188        Ar      Ar      Ar      0.000000 39.950000
     189 A       189        Ar      Ar      Ar      0.000000 39.950000
     190 A       190        Ar      Ar      Ar      0.000000 39.950000
     191 A       191        Ar      Ar      Ar      0.000000 39.950000
     192 A       192        Ar      Ar      Ar      0.000000 39.950000
     193 A       193        Ar      Ar      Ar      0.000000 39.950000
     194 A       194        Ar      Ar      Ar      0.000000 39.950000
     195 A       195        Ar      Ar      Ar      0.000000 39.950000
     196 A       196        Ar      Ar      Ar      0.000000 39.950000
     197 A       197        Ar      Ar      Ar      0.000000 39.950000
     198 A       198        Ar      Ar      Ar      0.000000 39.950000
     199 A       199        Ar      Ar      Ar      0.000000 39.950000
     200 A       200        Ar      Ar      Ar      0.000000 39.950000
     201 A       201        Ar      Ar      Ar      0.000000 39.950000
     202 A       202        Ar      Ar      Ar      0.000000 39.950000
     203 A       203        Ar      Ar      Ar      0.000000 39.950000
     204 A       204        Ar      Ar      Ar      0.000000 39.950000
     205 A       205        Ar      Ar      Ar      0.000000 39.950000
     206 A       206        Ar      Ar      Ar      0.000000 39.950000
     207 A       207        Ar      Ar      Ar      0.000000 39.950000
     208 A       208        Ar      Ar      Ar      0.000000 39.950000
     209 A       209        Ar      Ar      Ar      0.000000 39.950000
     210 A       210        Ar      Ar      Ar      0.000000 39.950000
     211 A       211        Ar      Ar      Ar      0.000000 39.950000
     212 A       212        Ar      Ar      Ar      0.000000 39.950000
     213 A       213        Ar      Ar      Ar      0.000000 39.950000
     214 A       214        Ar      Ar      Ar      0.000000 39.950000
     215 A       215        Ar      Ar      Ar      0.000000 39.950000
     216 A       216        Ar      Ar      Ar      0.000000 39.950000
     217 A       217        Ar      Ar      Ar      0.000000 39.950000
     218 A       218        Ar      Ar      Ar      0.000000 39.950000
     219 A       219        Ar      Ar      Ar      0.000000 39.950000
     220 A       220        Ar      Ar      Ar      0.000000 39.950000
     221 A       221        Ar      Ar      Ar      0.000000 39.950000
     222 A       222        Ar      Ar      Ar      0.000000 39.950000
     223 A       223        Ar      Ar      Ar      0.000000 39.950000
     224 A       224        Ar      Ar      Ar      0.000000 39.950000
     225 A       225        Ar      Ar      Ar      0.000000 39.950000
     226 A       226        Ar      Ar      Ar      0.000000 39.950000
     227 A       227        Ar      Ar      Ar      0.000000 39.950000
     228 A       228        Ar      Ar      Ar      0.000000 39.950000
     229 A       229        Ar      Ar      Ar      0.000000 39.950000
     230 A       230        Ar      Ar      Ar      0.000000 39.950000
     231 A       231        Ar      Ar      Ar      0.000000 39.950000
     232 A       232        Ar      Ar      Ar      0.000000 39.950000
     233 A       233        Ar      Ar      Ar      0.000000 39.950000
     234 A       234        Ar      Ar      Ar      0.000000 39.950000
     235 A       235        Ar      Ar      Ar      0.000000 39.950000
     236 A       236        Ar      Ar      Ar      0.000000 39.950000
     237 A       237        Ar      Ar      Ar      0.000000 39.950000
     238 A       238        Ar      Ar      Ar      0.000000 39.950000
     239 A       239        Ar      Ar      Ar      0.000000 39.950000
     240 A       240        Ar      Ar      Ar      0.000000 39.950000
     241 A       241        Ar      Ar      Ar      0.000000 39.950000
     242 A       242        Ar      Ar      Ar      0.000000 39.950000
     243 A       243        Ar      Ar      Ar      0.000000 39.950000
     244 A       244        Ar      Ar      Ar      0.000000 39.950000
     245 A       245        Ar      Ar      Ar      0.000000 39.950000
     246 A       246        Ar      Ar      Ar      0.000000 39.950000
     247 A       247        Ar      Ar      Ar      0.000000 39.950000
     248 A       248        Ar      Ar      Ar      0.000000 39.950000
     249 A       249        Ar      Ar      Ar      0.000000 39.950000
     250 A       250        Ar      Ar      Ar      0.000000 39.950000
     251 A       251        Ar      Ar      Ar      0.000000 39.950000
     252 A       252        Ar      Ar      Ar      0.000000 39.950000
     253 A       253        Ar      Ar      Ar      0.000000 39.950000
     254 A       254        Ar      Ar      Ar      0.000000 39.950000
     255 A       255        Ar      Ar      Ar      0.000000 39.950000
     256 A       256        Ar      Ar      Ar      0.000000 39.950000
     257 A       257        Ar      Ar      Ar      0.000000 39.950000
     258 A       258        Ar      Ar      Ar      0.000000 39.950000
     259 A       259        Ar      Ar      Ar      0.000000 39.950000
     260 A       260        Ar      Ar      Ar      0.000000 39.950000
     261 A       261        Ar      Ar      Ar      0.000000 39.950000
     262 A       262        Ar      Ar      Ar      0.000000 39.950000
     263 A       263        Ar      Ar      Ar      0.000000 39.950000
     264 A       264        Ar      Ar      Ar      0.000000 39.950000
     265 A       265        Ar      Ar      Ar      0.000000 39.950000
     266 A       266        Ar      Ar      Ar      0.000000 39.950000
     267 A       267        Ar      Ar      Ar      0.000000 39.950000
     268 A       268        Ar      Ar      Ar      0.000000 39.950000
     269 A       269        Ar      Ar      Ar      0.000000 39.950000
     270 A       270        Ar      Ar      Ar      0.000000 39.950000
     271 A       271        Ar      Ar      Ar      0.000000 39.950000
     272 A       272        Ar      Ar      Ar      0.000000 39.950000
     273 A       273        Ar      Ar      Ar      0.000000 39.950000
     274 A       274        Ar      Ar      Ar      0.000000 39.950000
     275 A       275        Ar      Ar      Ar      0.000000 39.950000
     276 A       276        Ar      Ar      Ar      0.000000 39.950000
     277 A       277        Ar      Ar      Ar      0.000000 39.950000
     278 A       278        Ar      Ar      Ar      0.000000 39.950000
     279 A       279        Ar      Ar      Ar      0.000000 39.950000
     280 A       280        Ar      Ar      Ar      0.000000 39.950000
     281 A       281        Ar      Ar      Ar      0.000000 39.950000
     282 A       282        Ar      Ar      Ar      0.000000 39.950000
     283 A       283        Ar      Ar      Ar      0.000000 39.950000
     284 A       284        Ar      Ar      Ar      0.000000 39.950000
     285 A       285        Ar      Ar      Ar      0.000000 39.950000
     286 A       286        Ar      Ar      Ar      0.000000 39.950000
     287 A       287        Ar      Ar      Ar      0.000000 39.950000
     288 A       288        Ar      Ar      Ar      0.000000 39.950000
     289 A       289        Ar      Ar      Ar      0.000000 39.950000
     290 A       290        Ar      Ar      Ar      0.000000 39.950000
     291 A       291        Ar      Ar      Ar      0.000000 39.950000
     292 A       292        Ar      Ar      Ar      0.000000 39.950000
     293 A       293        Ar      Ar      Ar      0.000000 39.950000
     294 A       294        Ar      Ar      Ar      0.000000 39.950000
     295 A       295        Ar      Ar      Ar      0.000000 39.950000
     296 A       296        Ar      Ar      Ar      0.000000 39.950000
     297 A       297        Ar      Ar      Ar      0.000000 39.950000
     298 A       298        Ar      Ar      Ar      0.000000 39.950000
     299 A       299        Ar      Ar      Ar      0.000000 39.950000
     300 A       300        Ar      Ar      Ar      0.000000 39.950000
     301 A       301        Ar      Ar      Ar      0.000000 39.950000
     302 A       302        Ar      Ar      Ar      0.000000 39.950000
     303 A       303        Ar      Ar      Ar      0.000000 39.950000
     304 A       304        Ar      Ar      Ar      0.000000 39.950000
     305 A       305        Ar      Ar      Ar      0.000000 39.950000
     306 A       306        Ar      Ar      Ar      0.000000 39.950000
     307 A       307        Ar      Ar      Ar      0.000000 39.950000
     308 A       308        Ar      Ar      Ar      0.000000 39.950000
     309 A       309        Ar      Ar      Ar      0.000000 39.950000
     310 A       310        Ar      Ar      Ar      0.000000 39.950000
     311 A       311        Ar      Ar      Ar      0.000000 39.950000
     312 A       312        Ar      Ar      Ar      0.000000 39.950000
     313 A       313        Ar      Ar      Ar      0.000000 39.950000
     314 A       314        Ar      Ar      Ar      0.000000 39.950000
     315 A       315        Ar      Ar      Ar      0.000000 39.950000
     316 A       316        Ar      Ar      Ar      0.000000 39.950000
     317 A       317        Ar      Ar      Ar      0.000000 39.950000
     318 A       318        Ar      Ar      Ar      0.000000 39.950000
     319 A       319        Ar      Ar      Ar      0.000000 39.950000
     320 A       320        Ar      Ar      Ar      0.000000 39.950000
     321 A       321        Ar      Ar      Ar      0.000000 39.950000
     322 A       322        Ar      Ar      Ar      0.000000 39.950000
     323 A       323        Ar      Ar      Ar      0.000000 39.950000
     324 A       324        Ar      Ar      Ar      0.000000 39.950000
     325 A       325        Ar      Ar      Ar      0.000000 39.950000
     326 A       326        Ar      Ar      Ar      0.000000 39.950000
     327 A       327        Ar      Ar      Ar      0.000000 39.950000
     328 A       328        Ar      Ar      Ar      0.000000 39.950000
     329 A       329        Ar      Ar      Ar      0.000000 39.950000
     330 A       330        Ar      Ar      Ar      0.000000 39.950000
     331 A       331        Ar      Ar      Ar      0.000000 39.950000
     332 A       332        Ar      Ar      Ar      0.000000 39.950000
     333 A       333        Ar      Ar      Ar      0.000000 39.950000
     334 A       334        Ar      Ar      Ar      0.000000 39.950000
     335 A       335        Ar      Ar      Ar      0.000000 39.950000
     336 A       336        Ar      Ar      Ar      0.000000 39.950000
     337 A       337        Ar      Ar      Ar      0.000000 39.950000
     338 A       338        Ar      Ar      Ar      0.000000 39.950000
     339 A       339        Ar      Ar      Ar      0.000000 39.950000
     340 A       340        Ar      Ar      Ar      0.000000 39.950000
     341 A       341        Ar      Ar      Ar      0.000000 39.950000
     342 A       342        Ar      Ar      Ar      0.000000 39.950000
     343 A       343        Ar      Ar      Ar      0.000000 39.950000
     344 A       344        Ar      Ar      Ar      0.000000 39.950000
     345 A       345        Ar      Ar      Ar      0.000000 39.950000
     346 A       346        Ar      Ar      Ar      0.000000 39.950000
     347 A       347        Ar      Ar      Ar      0.000000 39.950000
     348 A       348        Ar      Ar      Ar      0.000000 39.950000
     349 A       349        Ar      Ar      Ar      0.000000 39.950000
     350 A       350        Ar      Ar      Ar      0.000000 39.950000
     351 A       351        Ar      Ar      Ar      0.000000 39.950000
     352 A       352        Ar      Ar      Ar      0.000000 39.950000
     353 A       353        Ar      Ar      Ar      0.000000 39.950000
     354 A       354        Ar      Ar      Ar      0.000000 39.950000
     355 A       355        Ar      Ar      Ar      0.000000 39.950000
     356 A       356        Ar      Ar      Ar      0.000000 39.950000
     357 A       357        Ar      Ar      Ar      0.000000 39.950000
     358 A       358        Ar      Ar      Ar      0.000000 39.950000
     359 A       359        Ar      Ar      Ar      0.000000 39.950000
     360 A       360        Ar      Ar      Ar      0.000000 39.950000
     361 A       361        Ar      Ar      Ar      0.000000 39.950000
     362 A       362        Ar      Ar      Ar      0.000000 39.950000
     363 A       363        Ar      Ar      Ar      0.000000 39.950000
     364 A       364        Ar      Ar      Ar      0.000000 39.950000
     365 A       365        Ar      Ar      Ar      0.000000 39.950000
     366 A       366        Ar      Ar      Ar      0.000000 39.950000
     367 A       367        Ar      Ar      Ar      0.000000 39.950000
     368 A       368        Ar      Ar      Ar      0.000000 39.950000
     369 A       369        Ar      Ar      Ar      0.000000 39.950000
     370 A       370        Ar      Ar      Ar      0.000000 39.950000
     371 A       371        Ar      Ar      Ar      0.000000 39.950000
     372 A       372        Ar      Ar      Ar      0.000000 39.950000
     373 A       373        Ar      Ar      Ar      0.000000 39.950000
     374 A       374        Ar      Ar      Ar      0.000000 39.950000
     375 A       375        Ar      Ar      Ar      0.000000 39.950000
     376 A       376        Ar      Ar      Ar      0.000000 39.950000
     377 A       377        Ar      Ar      Ar      0.000000 39.950000
     378 A       378        Ar      Ar      Ar      0.000000 39.950000
     379 A       379        Ar      Ar      Ar      0.000000 39.950000
     380 A       380        Ar      Ar      Ar      0.000000 39.950000
     381 A       381        Ar      Ar      Ar      0.000000 39.950000
     382 A       382        Ar      Ar      Ar      0.000000 39.950000
     383 A       383        Ar      Ar      Ar      0.000000 39.950000
     384 A       384        Ar      Ar      Ar      0.000000 39.950000
     385 A       385        Ar      Ar      Ar      0.000000 39.950000
     386 A       386        Ar      Ar      Ar      0.000000 39.950000
     387 A       387        Ar      Ar      Ar      0.000000 39.950000
     388 A       388        Ar      Ar      Ar      0.000000 39.950000
     389 A       389        Ar      Ar      Ar      0.000000 39.950000
     390 A       390        Ar      Ar      Ar      0.000000 39.950000
     391 A       391        Ar      Ar      Ar      0.000000 39.950000
     392 A       392        Ar      Ar      Ar      0.000000 39.950000
     393 A       393        Ar      Ar      Ar      0.000000 39.950000
     394 A       394        Ar      Ar      Ar      0.000000 39.950000
     395 A       395        Ar      Ar      Ar      0.000000 39.950000
     396 A       396        Ar      Ar      Ar      0.000000 39.950000
     397 A       397        Ar      Ar      Ar      0.000000 39.950000
     398 A       398        Ar      Ar      Ar      0.000000 39.950000
     399 A       399        Ar      Ar      Ar      0.000000 39.950000
     400 A       400        Ar      Ar      Ar      0.000000 39.950000
     401 A       401        Ar      Ar      Ar      0.000000 39.950000
     402 A       402        Ar      Ar      Ar      0.000000 39.950000
     403 A       403        Ar      Ar      Ar      0.000000 39.950000
     404 A       404        Ar      Ar      Ar      0.000000 39.950000
     405 A       405        Ar      Ar      Ar      0.000000 39.950000
     406 A       406        Ar      Ar      Ar      0.000000 39.950000
     407 A       407        Ar      Ar      Ar      0.000000 39.950000
     408 A       408        Ar      Ar      Ar      0.000000 39.950000
     409 A       409        Ar      Ar      Ar      0.000000 39.950000
     410 A       410        Ar      Ar      Ar      0.000000 39.950000
     411 A       411        Ar      Ar      Ar      0.000000 39.950000
     412 A       412        Ar      Ar      Ar      0.000000 39.950000
     413 A       413        Ar      Ar      Ar      0.000000 39.950000
     414 A       414        Ar      Ar      Ar      0.000000 39.950000
     415 A       415        Ar      Ar      Ar      0.000000 39.950000
     416 A       416        Ar      Ar      Ar      0.000000 39.950000
     417 A       417        Ar      Ar      Ar      0.000000 39.950000
     418 A       418        Ar      Ar      Ar      0.000000 39.950000
     419 A       419        Ar      Ar      Ar      0.000000 39.950000
     420 A       420        Ar      Ar      Ar      0.000000 39.950000
     421 A       421        Ar      Ar      Ar      0.000000 39.950000
     422 A       422        Ar      Ar      Ar      0.000000 39.950000
     423 A       423        Ar      Ar      Ar      0.000000 39.950000
     424 A       424        Ar      Ar      Ar      0.000000 39.950000
     425 A       425        Ar      Ar      Ar      0.000000 39.950000
     426 A       426        Ar      Ar      Ar      0.000000 39.950000
     427 A       427        Ar      Ar      Ar      0.000000 39.950000
     428 A       428        Ar      Ar      Ar      0.000000 39.950000
     429 A       429        Ar      Ar      Ar      0.000000 39.950000
     430 A       430        Ar      Ar      Ar      0.000000 39.950000
     431 A       431        Ar      Ar      Ar      0.000000 39.950000
     432 A       432        Ar      Ar      Ar      0.000000 39.950000
     433 A       433        Ar      Ar      Ar      0.000000 39.950000
     434 A       434        Ar      Ar      Ar      0.000000 39.950000
     435 A       435        Ar      Ar      Ar      0.000000 39.950000
     436 A       436        Ar      Ar      Ar      0.000000 39.950000
     437 A       437        Ar      Ar      Ar      0.000000 39.950000
     438 A       438        Ar      Ar      Ar      0.000000 39.950000
     439 A       439        Ar      Ar      Ar      0.000000 39.950000
     440 A       440        Ar      Ar      Ar      0.000000 39.950000
     441 A       441        Ar      Ar      Ar      0.000000 39.950000
     442 A       442        Ar      Ar      Ar      0.000000 39.950000
     443 A       443        Ar      Ar      Ar      0.000000 39.950000
     444 A       444        Ar      Ar      Ar      0.000000 39.950000
     445 A       445        Ar      Ar      Ar      0.000000 39.950000
     446 A       446        Ar      Ar      Ar      0.000000 39.950000
     447 A       447        Ar      Ar      Ar      0.000000 39.950000
     448 A       448        Ar      Ar      Ar      0.000000 39.950000
     449 A       449        Ar      Ar      Ar      0.000000 39.950000
     450 A       450        Ar      Ar      Ar      0.000000 39.950000
     451 A       451        Ar      Ar      Ar      0.000000 39.950000
     452 A       452        Ar      Ar      Ar      0.000000 39.950000
     453 A       453        Ar      Ar      Ar      0.000000 39.950000
     454 A       454        Ar      Ar      Ar      0.000000 39.950000
     455 A       455        Ar      Ar      Ar      0.000000 39.950000
     456 A       456        Ar      Ar      Ar      0.000000 39.950000
     457 A       457        Ar      Ar      Ar      0.000000 39.950000
     458 A       458        Ar      Ar      Ar      0.000000 39.950000
     459 A       459        Ar      Ar      Ar      0.000000 39.950000
     460 A       460        Ar      Ar      Ar      0.000000 39.950000
     461 A       461        Ar      Ar      Ar      0.000000 39.950000
     462 A       462        Ar      Ar      Ar      0.000000 39.950000
     463 A       463        Ar      Ar      Ar      0.000000 39.950000
     464 A       464        Ar      Ar      Ar      0.000000 39.950000
     465 A       465        Ar      Ar      Ar      0.000000 39.950000
     466 A       466        Ar      Ar      Ar      0.000000 39.950000
     467 A       467        Ar      Ar      Ar      0.000000 39.950000
     468 A       468        Ar      Ar      Ar      0.000000 39.950000
     469 A       469        Ar      Ar      Ar      0.000000 39.950000
     470 A       470        Ar      Ar      Ar      0.000000 39.950000
     471 A       471        Ar      Ar      Ar      0.000000 39.950000
     472 A       472        Ar      Ar      Ar      0.000000 39.950000
     473 A       473        Ar      Ar      Ar      0.000000 39.950000
     474 A       474        Ar      Ar      Ar      0.000000 39.950000
     475 A       475        Ar      Ar      Ar      0.000000 39.950000
     476 A       476        Ar      Ar      Ar      0.000000 39.950000
     477 A       477        Ar      Ar      Ar      0.000000 39.950000
     478 A       478        Ar      Ar      Ar      0.000000 39.950000
     479 A       479        Ar      Ar      Ar      0.000000 39.950000
     480 A       480        Ar      Ar      Ar      0.000000 39.950000
     481 A       481        Ar      Ar      Ar      0.000000 39.950000
     482 A       482        Ar      Ar      Ar      0.000000 39.950000
     483 A       483        Ar      Ar      Ar      0.000000 39.950000
     484 A       484        Ar      Ar      Ar      0.000000 39.950000
     485 A       485        Ar      Ar      Ar      0.000000 39.950000
     486 A       486        Ar      Ar      Ar      0.000000 39.950000
     487 A       487        Ar      Ar      Ar      0.000000 39.950000
     488 A       488        Ar      Ar      Ar      0.000000 39.950000
     489 A       489        Ar      Ar      Ar      0.000000 39.950000
     490 A       490        Ar      Ar      Ar      0.000000 39.950000
     491 A       491        Ar      Ar      Ar      0.000000 39.950000
     492 A       492        Ar      Ar      Ar      0.000000 39.950000
     493 A       493        Ar      Ar      Ar      0.000000 39.950000
     494 A       494        Ar      Ar      Ar      0.000000 39.950000
     495 A       495        Ar      Ar      Ar      0.000000 39.950000
     496 A       496        Ar      Ar      Ar      0.000000 39.950000
     497 A       497        Ar      Ar      Ar      0.000000 39.950000
     498 A       498        Ar      Ar      Ar      0.000000 39.950000
     499 A       499        Ar      Ar      Ar      0.000000 39.950000
     500 A       500        Ar      Ar      Ar      0.000000 39.950000
     501 A       501        Ar      Ar      Ar      0.000000 39.950000
     502 A       502        Ar      Ar      Ar      0.000000 39.950000
     503 A       503        Ar      Ar      Ar      0.000000 39.950000
     504 A       504        Ar      Ar      Ar      0.000000 39.950000
     505 A       505        Ar      Ar      Ar      0.000000 39.950000
     506 A       506        Ar      Ar      Ar      0.000000 39.950000
     507 A       507        Ar      Ar      Ar      0.000000 39.950000
     508 A       508        Ar      Ar      Ar      0.000000 39.950000
     509 A       509        Ar      Ar      Ar      0.000000 39.950000
     510 A       510        Ar      Ar      Ar      0.000000 39.950000
     511 A       511        Ar      Ar      Ar      0.000000 39.950000
     512 A       512        Ar      Ar      Ar      0.000000 39.950000
     513 A       513        Ar      Ar      Ar      0.000000 39.950000
     514 A       514        Ar      Ar      Ar      0.000000 39.950000
     515 A       515        Ar      Ar      Ar      0.000000 39.950000
     516 A       516        Ar      Ar      Ar      0.000000 39.950000
     517 A       517        Ar      Ar      Ar      0.000000 39.950000
     518 A       518        Ar      Ar      Ar      0.000000 39.950000
     519 A       519        Ar      Ar      Ar      0.000000 39.950000
     520 A       520        Ar      Ar      Ar      0.000000 39.950000
     521 A       521        Ar      Ar      Ar      0.000000 39.950000
     522 A       522        Ar      Ar      Ar      0.000000 39.950000
     523 A       523        Ar      Ar      Ar      0.000000 39.950000
     524 A       524        Ar      Ar      Ar      0.000000 39.950000
     525 A       525        Ar      Ar      Ar      0.000000 39.950000
     526 A       526        Ar      Ar      Ar      0.000000 39.950000
     527 A       527        Ar      Ar      Ar      0.000000 39.950000
     528 A       528        Ar      Ar      Ar      0.000000 39.950000
     529 A       529        Ar      Ar      Ar      0.000000 39.950000
     530 A       530        Ar      Ar      Ar      0.000000 39.950000
     531 A       531        Ar      Ar      Ar      0.000000 39.950000
     532 A       532        Ar      Ar      Ar      0.000000 39.950000
     533 A       533        Ar      Ar      Ar      0.000000 39.950000
     534 A       534        Ar      Ar      Ar      0.000000 39.950000
     535 A       535        Ar      Ar      Ar      0.000000 39.950000
     536 A       536        Ar      Ar      Ar      0.000000 39.950000
     537 A       537        Ar      Ar      Ar      0.000000 39.950000
     538 A       538        Ar      Ar      Ar      0.000000 39.950000
     539 A       539        Ar      Ar      Ar      0.000000 39.950000
     540 A       540        Ar      Ar      Ar      0.000000 39.950000
     541 A       541        Ar      Ar      Ar      0.000000 39.950000
     542 A       542        Ar      Ar      Ar      0.000000 39.950000
     543 A       543        Ar      Ar      Ar      0.000000 39.950000
     544 A       544        Ar      Ar      Ar      0.000000 39.950000
     545 A       545        Ar      Ar      Ar      0.000000 39.950000
     546 A       546        Ar      Ar      Ar      0.000000 39.950000
     547 A       547        Ar      Ar      Ar      0.000000 39.950000
     548 A       548        Ar      Ar      Ar      0.000000 39.950000
     549 A       549        Ar      Ar      Ar      0.000000 39.950000
     550 A       550        Ar      Ar      Ar      0.000000 39.950000
     551 A       551        Ar      Ar      Ar      0.000000 39.950000
     552 A       552        Ar      Ar      Ar      0.000000 39.950000
     553 A       553        Ar      Ar      Ar      0.000000 39.950000
     554 A       554        Ar      Ar      Ar      0.000000 39.950000
     555 A       555        Ar      Ar      Ar      0.000000 39.950000
     556 A       556        Ar      Ar      Ar      0.000000 39.950000
     557 A       557        Ar      Ar      Ar      0.000000 39.950000
     558 A       558        Ar      Ar      Ar      0.000000 39.950000
     559 A       559        Ar      Ar      Ar      0.000000 39.950000
     560 A       560        Ar      Ar      Ar      0.000000 39.950000
     561 A       561        Ar      Ar      Ar      0.000000 39.950000
     562 A       562        Ar      Ar      Ar      0.000000 39.950000
     563 A       563        Ar      Ar      Ar      0.000000 39.950000
     564 A       564        Ar      Ar      Ar      0.000000 39.950000
     565 A       565        Ar      Ar      Ar      0.000000 39.950000
     566 A       566        Ar      Ar      Ar      0.000000 39.950000
     567 A       567        Ar      Ar      Ar      0.000000 39.950000
     568 A       568        Ar      Ar      Ar      0.000000 39.950000
     569 A       569        Ar      Ar      Ar      0.000000 39.950000
     570 A       570        Ar      Ar      Ar      0.000000 39.950000
     571 A       571        Ar      Ar      Ar      0.000000 39.950000
     572 A       572        Ar      Ar      Ar      0.000000 39.950000
     573 A       573        Ar      Ar      Ar      0.000000 39.950000
     574 A       574        Ar      Ar      Ar      0.000000 39.950000
     575 A       575        Ar      Ar      Ar      0.000000 39.950000
     576 A       576        Ar      Ar      Ar      0.000000 39.950000
     577 A       577        Ar      Ar      Ar      0.000000 39.950000
     578 A       578        Ar      Ar      Ar      0.000000 39.950000
     579 A       579        Ar      Ar      Ar      0.000000 39.950000
     580 A       580        Ar      Ar      Ar      0.000000 39.950000
     581 A       581        Ar      Ar      Ar      0.000000 39.950000
     582 A       582        Ar      Ar      Ar      0.000000 39.950000
     583 A       583        Ar      Ar      Ar      0.000000 39.950000
     584 A       584        Ar      Ar      Ar      0.000000 39.950000
     585 A       585        Ar      Ar      Ar      0.000000 39.950000
     586 A       586        Ar      Ar      Ar      0.000000 39.950000
     587 A       587        Ar      Ar      Ar      0.000000 39.950000
     588 A       588        Ar      Ar      Ar      0.000000 39.950000
     589 A       589        Ar      Ar      Ar      0.000000 39.950000
     590 A       590        Ar      Ar      Ar      0.000000 39.950000
     591 A       591        Ar      Ar      Ar      0.000000 39.950000
     592 A       592        Ar      Ar      Ar      0.000000 39.950000
     593 A       593        Ar      Ar      Ar      0.000000 39.950000
     594 A       594        Ar      Ar      Ar      0.000000 39.950000
     595 A       595        Ar      Ar      Ar      0.000000 39.950000
     596 A       596        Ar      Ar      Ar      0.000000 39.950000
     597 A       597        Ar      Ar      Ar      0.000000 39.950000
     598 A       598        Ar      Ar      Ar      0.000000 39.950000
     599 A       599        Ar      Ar      Ar      0.000000 39.950000
     600 A       600        Ar      Ar      Ar      0.000000 39.950000
     601 A       601        Ar      Ar      Ar      0.000000 39.950000
     602 A       602        Ar      Ar      Ar      0.000000 39.950000
     603 A       603        Ar      Ar      Ar      0.000000 39.950000
     604 A       604        Ar      Ar      Ar      0.000000 39.950000
     605 A       605        Ar      Ar      Ar      0.000000 39.950000
     606 A       606        Ar      Ar      Ar      0.000000 39.950000
     607 A       607        Ar      Ar      Ar      0.000000 39.950000
     608 A       608        Ar      Ar      Ar      0.000000 39.950000
     609 A       609        Ar      Ar      Ar      0.000000 39.950000
     610 A       610        Ar      Ar      Ar      0.000000 39.950000
     611 A       611        Ar      Ar      Ar      0.000000 39.950000
     612 A       612        Ar      Ar      Ar      0.000000 39.950000
     613 A       613        Ar      Ar      Ar      0.000000 39.950000
     614 A       614        Ar      Ar      Ar      0.000000 39.950000
     615 A       615        Ar      Ar      Ar      0.000000 39.950000
     616 A       616        Ar      Ar      Ar      0.000000 39.950000
     617 A       617        Ar      Ar      Ar      0.000000 39.950000
     618 A       618        Ar      Ar      Ar      0.000000 39.950000
     619 A       619        Ar      Ar      Ar      0.000000 39.950000
     620 A       620        Ar      Ar      Ar      0.000000 39.950000
     621 A       621        Ar      Ar      Ar      0.000000 39.950000
     622 A       622        Ar      Ar      Ar      0.000000 39.950000
     623 A       623        Ar      Ar      Ar      0.000000 39.950000
     624 A       624        Ar      Ar      Ar      0.000000 39.950000
     625 A       625        Ar      Ar      Ar      0.000000 39.950000
     626 A       626        Ar      Ar      Ar      0.000000 39.950000
     627 A       627        Ar      Ar      Ar      0.000000 39.950000
     628 A       628        Ar      Ar      Ar      0.000000 39.950000
     629 A       629        Ar      Ar      Ar      0.000000 39.950000
     630 A       630        Ar      Ar      Ar      0.000000 39.950000
     631 A       631        Ar      Ar      Ar      0.000000 39.950000
     632 A       632        Ar      Ar      Ar      0.000000 39.950000
     633 A       633        Ar      Ar      Ar      0.000000 39.950000
     634 A       634        Ar      Ar      Ar      0.000000 39.950000
     635 A       635        Ar      Ar      Ar      0.000000 39.950000
     636 A       636        Ar      Ar      Ar      0.000000 39.950000
     637 A       637        Ar      Ar      Ar      0.000000 39.950000
     638 A       638        Ar      Ar      Ar      0.000000 39.950000
     639 A       639        Ar      Ar      Ar      0.000000 39.950000
     640 A       640        Ar      Ar      Ar      0.000000 39.950000
     641 A       641        Ar      Ar      Ar      0.000000 39.950000
     642 A       642        Ar      Ar      Ar      0.000000 39.950000
     643 A       643        Ar      Ar      Ar      0.000000 39.950000
     644 A       644        Ar      Ar      Ar      0.000000 39.950000
     645 A       645        Ar      Ar      Ar      0.000000 39.950000
     646 A       646        Ar      Ar      Ar      0.000000 39.950000
     647 A       647        Ar      Ar      Ar      0.000000 39.950000
     648 A       648        Ar      Ar      Ar      0.000000 39.950000
     649 A       649        Ar      Ar      Ar      0.000000 39.950000
     650 A       650        Ar      Ar      Ar      0.000000 39.950000
     651 A       651        Ar      Ar      Ar      0.000000 39.950000
     652 A       652        Ar      Ar      Ar      0.000000 39.950000
     653 A       653        Ar      Ar      Ar      0.000000 39.950000
     654 A       654        Ar      Ar      Ar      0.000000 39.950000
     655 A       655        Ar      Ar      Ar      0.000000 39.950000
     656 A       656        Ar      Ar      Ar      0.000000 39.950000
     657 A       657        Ar      Ar      Ar      0.000000 39.950000
     658 A       658        Ar      Ar      Ar      0.000000 39.950000
     659 A       659        Ar      Ar      Ar      0.000000 39.950000
     660 A       660        Ar      Ar      Ar      0.000000 39.950000
     661 A       661        Ar      Ar      Ar      0.000000 39.950000
     662 A       662        Ar      Ar      Ar      0.000000 39.950000
     663 A       663        Ar      Ar      Ar      0.000000 39.950000
     664 A       664        Ar      Ar      Ar      0.000000 39.950000
     665 A       665        Ar      Ar      Ar      0.000000 39.950000
     666 A       666        Ar      Ar      Ar      0.000000 39.950000
     667 A       667        Ar      Ar      Ar      0.000000 39.950000
     668 A       668        Ar      Ar      Ar      0.000000 39.950000
     669 A       669        Ar      Ar      Ar      0.000000 39.950000
     670 A       670        Ar      Ar      Ar      0.000000 39.950000
     671 A       671        Ar      Ar      Ar      0.000000 39.950000
     672 A       672        Ar      Ar      Ar      0.000000 39.950000
     673 A       673        Ar      Ar      Ar      0.000000 39.950000
     674 A       674        Ar      Ar      Ar      0.000000 39.950000
     675 A       675        Ar      Ar      Ar      0.000000 39.950000
     676 A       676        Ar      Ar      Ar      0.000000 39.950000
     677 A       677        Ar      Ar      Ar      0.000000 39.950000
     678 A       678        Ar      Ar      Ar      0.000000 39.950000
     679 A       679        Ar      Ar      Ar      0.000000 39.950000
     680 A       680        Ar      Ar      Ar      0.000000 39.950000
     681 A       681        Ar      Ar      Ar      0.000000 39.950000
     682 A       682        Ar      Ar      Ar      0.000000 39.950000
     683 A       683        Ar      Ar      Ar      0.000000 39.950000
     684 A       684        Ar      Ar      Ar      0.000000 39.950000
     685 A       685        Ar      Ar      Ar      0.000000 39.950000
     686 A       686        Ar      Ar      Ar      0.000000 39.950000
     687 A       687        Ar      Ar      Ar      0.000000 39.950000
     688 A       688        Ar      Ar      Ar      0.000000 39.950000
     689 A       689        Ar      Ar      Ar      0.000000 39.950000
     690 A       690        Ar      Ar      Ar      0.000000 39.950000
     691 A       691        Ar      Ar      Ar      0.000000 39.950000
     692 A       692        Ar      Ar      Ar      0.000000 39.950000
     693 A       693        Ar      Ar      Ar      0.000000 39.950000
     694 A       694        Ar      Ar      Ar      0.000000 39.950000
     695 A       695        Ar      Ar      Ar      0.000000 39.950000
     696 A       696        Ar      Ar      Ar      0.000000 39.950000
     697 A       697        Ar      Ar      Ar      0.000000 39.950000
     698 A       698        Ar      Ar      Ar      0.000000 39.950000
     699 A       699        Ar      Ar      Ar      0.000000 39.950000
     700 A       700        Ar      Ar      Ar      0.000000 39.950000
     701 A       701        Ar      Ar      Ar      0.000000 39.950000
     702 A       702        Ar      Ar      Ar      0.000000 39.950000
     703 A       703        Ar      Ar      Ar      0.000000 39.950000
     704 A       704        Ar      Ar      Ar      0.000000 39.950000
     705 A       705        Ar      Ar      Ar      0.000000 39.950000
     706 A       706        Ar      Ar      Ar      0.000000 39.950000
     707 A       707        Ar      Ar      Ar      0.000000 39.950000
     708 A       708        Ar      Ar      Ar      0.000000 39.950000
     709 A       709        Ar      Ar      Ar      0.000000 39.950000
     710 A       710        Ar      Ar      Ar      0.000000 39.950000
     711 A       711        Ar      Ar      Ar      0.000000 39.950000
     712 A       712        Ar      Ar      Ar      0.000000 39.950000
     713 A       713        Ar      Ar      Ar      0.000000 39.950000
     714 A       714        Ar      Ar      Ar      0.000000 39.950000
     715 A       715        Ar      Ar      Ar      0.000000 39.950000
     716 A       716        Ar      Ar      Ar      0.000000 39.950000
     717 A       717        Ar      Ar      Ar      0.000000 39.950000
     718 A       718        Ar      Ar      Ar      0.000000 39.950000
     719 A       719        Ar      Ar      Ar      0.000000 39.950000
     720 A       720        Ar      Ar      Ar      0.000000 39.950000
     721 A       721        Ar      Ar      Ar      0.000000 39.950000
     722 A       722        Ar      Ar      Ar      0.000000 39.950000
     723 A       723        Ar      Ar      Ar      0.000000 39.950000
     724 A       724        Ar      Ar      Ar      0.000000 39.950000
     725 A       725        Ar      Ar      Ar      0.000000 39.950000
     726 A       726        Ar      Ar      Ar      0.000000 39.950000
     727 A       727        Ar      Ar      Ar      0.000000 39.950000
     728 A       728        Ar      Ar      Ar      0.000000 39.950000
     729 A       729        Ar      Ar      Ar      0.000000 39.950000
     730 A       730        Ar      Ar      Ar      0.000000 39.950000
     731 A       731        Ar      Ar      Ar      0.000000 39.950000
     732 A       732        Ar      Ar      Ar      0.000000 39.950000
     733 A       733        Ar      Ar      Ar      0.000000 39.950000
     734 A       734        Ar      Ar      Ar      0.000000 39.950000
     735 A       735        Ar      Ar      Ar      0.000000 39.950000
     736 A       736        Ar      Ar      Ar      0.000000 39.950000
     737 A       737        Ar      Ar      Ar      0.000000 39.950000
     738 A       738        Ar      Ar      Ar      0.000000 39.950000
     739 A       739        Ar      Ar      Ar      0.000000 39.950000
     740 A       740        Ar      Ar      Ar      0.000000 39.950000
     741 A       741        Ar      Ar      Ar      0.000000 39.950000
     742 A       742        Ar      Ar      Ar      0.000000 39.950000
     743 A       743        Ar      Ar      Ar      0.000000 39.950000
     744 A       744        Ar      Ar      Ar      0.000000 39.950000
     745 A       745        Ar      Ar      Ar      0.000000 39.950000
     746 A       746        Ar      Ar      Ar      0.000000 39.950000
     747 A       747        Ar      Ar      Ar      0.000000 39.950000
     748 A       748        Ar      Ar      Ar      0.000000 39.950000
     749 A       749        Ar      Ar      Ar      0.000000 39.950000
     750 A       750        Ar      Ar      Ar      0.000000 39.950000
     751 A       751        Ar      Ar      Ar      0.000000 39.950000
     752 A       752        Ar      Ar      Ar      0.000000 39.950000
     753 A       753        Ar      Ar      Ar      0.000000 39.950000
     754 A       754        Ar      Ar      Ar      0.000000 39.950000
     755 A       755        Ar      Ar      Ar      0.000000 39.950000
     756 A       756        Ar      Ar      Ar      0.000000 39.950000
     757 A       757        Ar      Ar      Ar      0.000000 39.950000
     758 A       758        Ar      Ar      Ar      0.000000 39.950000
     759 A       759        Ar      Ar      Ar      0.000000 39.950000
     760 A       760        Ar      Ar      Ar      0.000000 39.950000
     761 A       761        Ar      Ar      Ar      0.000000 39.950000
     762 A       762        Ar      Ar      Ar      0.000000 39.950000
     763 A       763        Ar      Ar      Ar      0.000000 39.950000
     764 A       764        Ar      Ar      Ar      0.000000 39.950000
     765 A       765        Ar      Ar      Ar      0.000000 39.950000
     766 A       766        Ar      Ar      Ar      0.000000 39.950000
     767 A       767        Ar      Ar      Ar      0.000000 39.950000
     768 A       768        Ar      Ar      Ar      0.000000 39.950000
     769 A       769        Ar      Ar      Ar      0.000000 39.950000
     770 A       770        Ar      Ar      Ar      0.000000 39.950000
     771 A       771        Ar      Ar      Ar      0.000000 39.950000
     772 A       772        Ar      Ar      Ar      0.000000 39.950000
     773 A       773        Ar      Ar      Ar      0.000000 39.950000
     774 A       774        Ar      Ar      Ar      0.000000 39.950000
     775 A       775        Ar      Ar      Ar      0.000000 39.950000
     776 A       776        Ar      Ar      Ar      0.000000 39.950000
     777 A       777        Ar      Ar      Ar      0.000000 39.950000
     778 A       778        Ar      Ar      Ar      0.000000 39.950000
     779 A       779        Ar      Ar      Ar      0.000000 39.950000
     780 A       780        Ar      Ar      Ar      0.000000 39.950000
     781 A       781        Ar      Ar      Ar      0.000000 39.950000
     782 A       782        Ar      Ar      Ar      0.000000 39.950000
     783 A       783        Ar      Ar      Ar      0.000000 39.950000
     784 A       784        Ar      Ar      Ar      0.000000 39.950000
     785 A       785        Ar      Ar      Ar      0.000000 39.950000
     786 A       786        Ar      Ar      Ar      0.000000 39.950000
     787 A       787        Ar      Ar      Ar      0.000000 39.950000
     788 A       788        Ar      Ar      Ar      0.000000 39.950000
     789 A       789        Ar      Ar      Ar      0.000000 39.950000
     790 A       790        Ar      Ar      Ar      0.000000 39.950000
     791 A       791        Ar      Ar      Ar      0.000000 39.950000
     792 A       792        Ar      Ar      Ar      0.000000 39.950000
     793 A       793        Ar      Ar      Ar      0.000000 39.950000
     794 A       794        Ar      Ar      Ar      0.000000 39.950000
     795 A       795        Ar      Ar      Ar      0.000000 39.950000
     796 A       796        Ar      Ar      Ar      0.000000 39.950000
     797 A       797        Ar      Ar      Ar      0.000000 39.950000
     798 A       798        Ar      Ar      Ar      0.000000 39.950000
     799 A       799        Ar      Ar      Ar      0.000000 39.950000
     800 A       800        Ar      Ar      Ar      0.000000 39.950000
     801 A       801        Ar      Ar      Ar      0.000000 39.950000
     802 A       802        Ar      Ar      Ar      0.000000 39.950000
     803 A       803        Ar      Ar      Ar      0.000000 39.950000
     804 A       804        Ar      Ar      Ar      0.000000 39.950000
     805 A       805        Ar      Ar      Ar      0.000000 39.950000
     806 A       806        Ar      Ar      Ar      0.000000 39.950000
     807 A       807        Ar      Ar      Ar      0.000000 39.950000
     808 A       808        Ar      Ar      Ar      0.000000 39.950000
     809 A       809        Ar      Ar      Ar      0.000000 39.950000
     810 A       810        Ar      Ar      Ar      0.000000 39.950000
     811 A       811        Ar      Ar      Ar      0.000000 39.950000
     812 A       812        Ar      Ar      Ar      0.000000 39.950000
     813 A       813        Ar      Ar      Ar      0.000000 39.950000
     814 A       814        Ar      Ar      Ar      0.000000 39.950000
     815 A       815        Ar      Ar      Ar      0.000000 39.950000
     816 A       816        Ar      Ar      Ar      0.000000 39.950000
     817 A       817        Ar      Ar      Ar      0.000000 39.950000
     818 A       818        Ar      Ar      Ar      0.000000 39.950000
     819 A       819        Ar      Ar      Ar      0.000000 39.950000
     820 A       820        Ar      Ar      Ar      0.000000 39.950000
     821 A       821        Ar      Ar      Ar      0.000000 39.950000
     822 A       822        Ar      Ar      Ar      0.000000 39.950000
     823 A       823        Ar      Ar      Ar      0.000000 39.950000
     824 A       824        Ar      Ar      Ar      0.000000 39.950000
     825 A       825        Ar      Ar      Ar      0.000000 39.950000
     826 A       826        Ar      Ar      Ar      0.000000 39.950000
     827 A       827        Ar      Ar      Ar      0.000000 39.950000
     828 A       828        Ar      Ar      Ar      0.000000 39.950000
     829 A       829        Ar      Ar      Ar      0.000000 39.950000
     830 A       830        Ar      Ar      Ar      0.000000 39.950000
     831 A       831        Ar      Ar      Ar      0.000000 39.950000
     832 A       832        Ar      Ar      Ar      0.000000 39.950000
     833 A       833        Ar      Ar      Ar      0.000000 39.950000
     834 A       834        Ar      Ar      Ar      0.000000 39.950000
     835 A       835        Ar      Ar      Ar      0.000000 39.950000
     836 A       836        Ar      Ar      Ar      0.000000 39.950000
     837 A       837        Ar      Ar      Ar      0.000000 39.950000
     838 A       838        Ar      Ar      Ar      0.000000 39.950000
     839 A       839        Ar      Ar      Ar      0.000000 39.950000
     840 A       840        Ar      Ar      Ar      0.000000 39.950000
     841 A       841        Ar      Ar      Ar      0.000000 39.950000
     842 A       842        Ar      Ar      Ar      0.000000 39.950000
     843 A       843        Ar      Ar      Ar      0.000000 39.950000
     844 A       844        Ar      Ar      Ar      0.000000 39.950000
     845 A       845        Ar      Ar      Ar      0.000000 39.950000
     846 A       846        Ar      Ar      Ar      0.000000 39.950000
     847 A       847        Ar      Ar      Ar      0.000000 39.950000
     848 A       848        Ar      Ar      Ar      0.000000 39.950000
     849 A       849        Ar      Ar      Ar      0.000000 39.950000
     850 A       850        Ar      Ar      Ar      0.000000 39.950000
     851 A       851        Ar      Ar      Ar      0.000000 39.950000
     852 A       852        Ar      Ar      Ar      0.000000 39.950000
     853 A       853        Ar      Ar      Ar      0.000000 39.950000
     854 A       854        Ar      Ar      Ar      0.000000 39.950000
     855 A       855        Ar      Ar      Ar      0.000000 39.950000
     856 A       856        Ar      Ar      Ar      0.000000 39.950000
     857 A       857        Ar      Ar      Ar      0.000000 39.950000
     858 A       858        Ar      Ar      Ar      0.000000 39.950000
     859 A       859        Ar      Ar      Ar      0.000000 39.950000
     860 A       860        Ar      Ar      Ar      0.000000 39.950000
     861 A       861        Ar      Ar      Ar      0.000000 39.950000
     862 A       862        Ar      Ar      Ar      0.000000 39.950000
     863 A       863        Ar      Ar      Ar      0.000000 39.950000
     864 A       864        Ar      Ar      Ar      0.000000 39.950000
     865 A       865        Ar      Ar      Ar      0.000000 39.950000
     866 A       866        Ar      Ar      Ar      0.000000 39.950000
     867 A       867        Ar      Ar      Ar      0.000000 39.950000
     868 A       868        Ar      Ar      Ar      0.000000 39.950000
     869 A       869        Ar      Ar      Ar      0.000000 39.950000
     870 A       870        Ar      Ar      Ar      0.000000 39.950000
     871 A       871        Ar      Ar      Ar      0.000000 39.950000
     872 A       872        Ar      Ar      Ar      0.000000 39.950000
     873 A       873        Ar      Ar      Ar      0.000000 39.950000
     874 A       874        Ar      Ar      Ar      0.000000 39.950000
     875 A       875        Ar      Ar      Ar      0.000000 39.950000
     876 A       876        Ar      Ar      Ar      0.000000 39.950000
     877 A       877        Ar      Ar      Ar      0.000000 39.950000
     878 A       878        Ar      Ar      Ar      0.000000 39.950000
     879 A       879        Ar      Ar      Ar      0.000000 39.950000
     880 A       880        Ar      Ar      Ar      0.000000 39.950000
     881 A       881        Ar      Ar      Ar      0.000000 39.950000
     882 A       882        Ar      Ar      Ar      0.000000 39.950000
     883 A       883        Ar      Ar      Ar      0.000000 39.950000
     884 A       884        Ar      Ar      Ar      0.000000 39.950000
     885 A       885        Ar      Ar      Ar      0.000000 39.950000
     886 A       886        Ar      Ar      Ar      0.000000 39.950000
     887 A       887        Ar      Ar      Ar      0.000000 39.950000
     888 A       888        Ar      Ar      Ar      0.000000 39.950000
     889 A       889        Ar      Ar      Ar      0.000000 39.950000
     890 A       890        Ar      Ar      Ar      0.000000 39.950000
     891 A       891        Ar      Ar      Ar      0.000000 39.950000
     892 A       892        Ar      Ar      Ar      0.000000 39.950000
     893 A       893        Ar      Ar      Ar      0.000000 39.950000
     894 A       894        Ar      Ar      Ar      0.000000 39.950000
     895 A       895        Ar      Ar      Ar      0.000000 39.950000
     896 A       896        Ar      Ar      Ar      0.000000 39.950000
     897 A       897        Ar      Ar      Ar      0.000000 39.950000
     898 A       898        Ar      Ar      Ar      0.000000 39.950000
     899 A       899        Ar      Ar      Ar      0.000000 39.950000
     900 A       900        Ar      Ar      Ar      0.000000 39.950000
     901 A       901        Ar      Ar      Ar      0.000000 39.950000
     902 A       902        Ar      Ar      Ar      0.000000 39.950000
     903 A       903        Ar      Ar      Ar      0.000000 39.950000
     904 A       904        Ar      Ar      Ar      0.000000 39.950000
     905 A       905        Ar      Ar      Ar      0.000000 39.950000
     906 A       906        Ar      Ar      Ar      0.000000 39.950000
     907 A       907        Ar      Ar      Ar      0.000000 39.950000
     908 A       908        Ar      Ar      Ar      0.000000 39.950000
     909 A       909        Ar      Ar      Ar      0.000000 39.950000
     910 A       910        Ar      Ar      Ar      0.000000 39.950000
     911 A       911        Ar      Ar      Ar      0.000000 39.950000
     912 A       912        Ar      Ar      Ar      0.000000 39.950000
     913 A       913        Ar      Ar      Ar      0.000000 39.950000
     914 A       914        Ar      Ar      Ar      0.000000 39.950000
     915 A       915        Ar      Ar      Ar      0.000000 39.950000
     916 A       916        Ar      Ar      Ar      0.000000 39.950000
     917 A       917        Ar      Ar      Ar      0.000000 39.950000
     918 A       918        Ar      Ar      Ar      0.000000 39.950000
     919 A       919        Ar      Ar      Ar      0.000000 39.950000
     920 A       920        Ar      Ar      Ar      0.000000 39.950000
     921 A       921        Ar      Ar      Ar      0.000000 39.950000
     922 A       922        Ar      Ar      Ar      0.000000 39.950000
     923 A       923        Ar      Ar      Ar      0.000000 39.950000
     924 A       924        Ar      Ar      Ar      0.000000 39.950000
     925 A       925        Ar      Ar      Ar      0.000000 39.950000
     926 A       926        Ar      Ar      Ar      0.000000 39.950000
     927 A       927        Ar      Ar      Ar      0.000000 39.950000
     928 A       928        Ar      Ar      Ar      0.000000 39.950000
     929 A       929        Ar      Ar      Ar      0.000000 39.950000
     930 A       930        Ar      Ar      Ar      0.000000 39.950000
     931 A       931        Ar      Ar      Ar      0.000000 39.950000
     932 A       932        Ar      Ar      Ar      0.000000 39.950000
     933 A       933        Ar      Ar      Ar      0.000000 39.950000
     934 A       934        Ar      Ar      Ar      0.000000 39.950000
     935 A       935        Ar      Ar      Ar      0.000000 39.950000
     936 A       936        Ar      Ar      Ar      0.000000 39.950000
     937 A       937        Ar      Ar      Ar      0.000000 39.950000
     938 A       938        Ar      Ar      Ar      0.000000 39.950000
     939 A       939        Ar      Ar      Ar      0.000000 39.950000
     940 A       940        Ar      Ar      Ar      0.000000 39.950000
     941 A       941        Ar      Ar      Ar      0.000000 39.950000
     942 A       942        Ar      Ar      Ar      0.000000 39.950000
     943 A       943        Ar      Ar      Ar      0.000000 39.950000
     944 A       944        Ar      Ar      Ar      0.000000 39.950000
     945 A       945        Ar      Ar      Ar      0.000000 39.950000
     946 A       946        Ar      Ar      Ar      0.000000 39.950000
     947 A       947        Ar      Ar      Ar      0.000000 39.950000
     948 A       948        Ar      Ar      Ar      0.000000 39.950000
     949 A       949        Ar      Ar      Ar      0.000000 39.950000
     950 A       950        Ar      Ar      Ar      0.000000 39.950000
     951 A       951        Ar      Ar      Ar      0.000000 39.950000
     952 A       952        Ar      Ar      Ar      0.000000 39.950000
     953 A       953        Ar      Ar      Ar      0.000000 39.950000
     954 A       954        Ar      Ar      Ar      0.000000 39.950000
     955 A       955        Ar      Ar      Ar      0.000000 39.950000
     956 A       956        Ar      Ar      Ar      0.000000 39.950000
     957 A       957        Ar      Ar      Ar      0.000000 39.950000
     958 A       958        Ar      Ar      Ar      0.000000 39.950000
     959 A       959        Ar      Ar      Ar      0.000000 39.950000
     960 A       960        Ar      Ar      Ar      0.000000 39.950000
     961 A       961        Ar      Ar      Ar      0.000000 39.950000
     962 A       962        Ar      Ar      Ar      0.000000 39.950000
     963 A       963        Ar      Ar      Ar      0.000000 39.950000
     964 A       964        Ar      Ar      Ar      0.000000 39.950000
     965 A       965        Ar      Ar      Ar      0.000000 39.950000
     966 A       966        Ar      Ar      Ar      0.000000 39.950000
     967 A       967        Ar      Ar      Ar      0.000000 39.950000
     968 A       968        Ar      Ar      Ar      0.000000 39.950000
     969 A       969        Ar      Ar      Ar      0.000000 39.950000
     970 A       970        Ar      Ar      Ar      0.000000 39.950000
     971 A       971        Ar      Ar      Ar      0.000000 39.950000
     972 A       972        Ar      Ar      Ar      0.000000 39.950000
     973 A       973        Ar      Ar      Ar      0.000000 39.950000
     974 A       974        Ar      Ar      Ar      0.000000 39.950000
     975 A       975        Ar      Ar      Ar      0.000000 39.950000
     976 A       976        Ar      Ar      Ar      0.000000 39.950000
     977 A       977        Ar      Ar      Ar      0.000000 39.950000
     978 A       978        Ar      Ar      Ar      0.000000 39.950000
     979 A       979        Ar      Ar      Ar      0.000000 39.950000
     980 A       980        Ar      Ar      Ar      0.000000 39.950000
     981 A       981        Ar      Ar      Ar      0.000000 39.950000
     982 A       982        Ar      Ar      Ar      0.000000 39.950000
     983 A       983        Ar      Ar      Ar      0.000000 39.950000
     984 A       984        Ar      Ar      Ar      0.000000 39.950000
     985 A       985        Ar      Ar      Ar      0.000000 39.950000
     986 A       986        Ar      Ar      Ar      0.000000 39.950000
     987 A       987        Ar      Ar      Ar      0.000000 39.950000
     988 A       988        Ar      Ar      Ar      0.000000 39.950000
     989 A       989        Ar      Ar      Ar      0.000000 39.950000
     990 A       990        Ar      Ar      Ar      0.000000 39.950000
     991 A       991        Ar      Ar      Ar      0.000000 39.950000
     992 A       992        Ar      Ar      Ar      0.000000 39.950000
     993 A       993        Ar      Ar      Ar      0.000000 39.950000
     994 A       994        Ar      Ar      Ar      0.000000 39.950000
     995 A       995        Ar      Ar      Ar      0.000000 39.950000
     996 A       996        Ar      Ar      Ar      0.000000 39.950000
     997 A       997        Ar      Ar      Ar      0.000000 39.950000
     998 A       998        Ar      Ar      Ar      0.000000 39.950000
     999 A       999        Ar      Ar      Ar      0.000000 39.950000
    1000 A       1000       Ar      Ar      Ar      0.000000 39.950000
    1001 A       1001       Ar      Ar      Ar      0.000000 39.950000
    1002 A       1002       Ar      Ar      Ar      0.000000 39.950000
    1003 A       1003       Ar      Ar      Ar      0.000000 39.950000
    1004 A       1004       Ar      Ar      Ar      0.000000 39.950000
    1005 A       1005       Ar      Ar      Ar      0.000000 39.950000
    1006 A       1006       Ar      Ar      Ar      0.000000 39.950000
    1007 A       1007       Ar      Ar      Ar      0.000000 39.950000
    1008 A       1008       Ar      Ar      Ar      0.000000 39.950000
    1009 A       1009       Ar      Ar      Ar      0.000000 39.950000
    1010 A       1010       Ar      Ar      Ar      0.000000 39.950000
    1011 A       1011       Ar      Ar      Ar      0.000000 39.950000
    1012 A       1012       Ar      Ar      Ar      0.000000 39.950000
    1013 A       1013       Ar      Ar      Ar      0.000000 39.950000
    1014 A       1014       Ar      Ar      Ar      0.000000 39.950000
    1015 A       1015       Ar      Ar      Ar      0.000000 39.950000
    1016 A       1016       Ar      Ar      Ar      0.000000 39.950000
    1017 A       1017       Ar      Ar      Ar      0.000000 39.950000
    1018 A       1018       Ar      Ar      Ar      0.000000 39.950000
    1019 A       1019       Ar      Ar      Ar      0.000000 39.950000
    1020 A       1020       Ar      Ar      Ar      0.000000 39.950000
    1021 A       1021       Ar      Ar      Ar      0.000000 39.950000
    1022 A       1022       Ar      Ar      Ar      0.000000 39.950000
    1023 A       1023       Ar      Ar      Ar      0.000000 39.950000
    1024 A       1024       Ar      Ar      Ar      0.000000 39.950000
    1025 A       1025       Ar      Ar      Ar      0.000000 39.950000
    1026 A       1026       Ar      Ar      Ar      0.000000 39.950000
    1027 A       1027       Ar      Ar      Ar      0.000000 39.950000
    1028 A       1028       Ar      Ar      Ar      0.000000 39.950000
    1029 A       1029       Ar      Ar      Ar      0.000000 39.950000
    1030 A       1030       Ar      Ar      Ar      0.000000 39.950000
    1031 A       1031       Ar      Ar      Ar      0.000000 39.950000
    1032 A       1032       Ar      Ar      Ar      0.000000 39.950000
    1033 A       1033       Ar      Ar      Ar      0.000000 39.950000
    1034 A       1034       Ar      Ar      Ar      0.000000 39.950000
    1035 A       1035       Ar      Ar      Ar      0.000000 39.950000
    1036 A       1036       Ar      Ar      Ar      0.000000 39.950000
    1037 A       1037       Ar      Ar      Ar      0.000000 39.950000
    1038 A       1038       Ar      Ar      Ar      0.000000 39.950000
    1039 A       1039       Ar      Ar      Ar      0.000000 39.950000
    1040 A       1040       Ar      Ar      Ar      0.000000 39.950000
    1041 A       1041       Ar      Ar      Ar      0.000000 39.950000
    1042 A       1042       Ar      Ar      Ar      0.000000 39.950000
    1043 A       1043       Ar      Ar      Ar      0.000000 39.950000
    1044 A       1044       Ar      Ar      Ar      0.000000 39.950000
    1045 A       1045       Ar      Ar      Ar      0.000000 39.950000
    1046 A       1046       Ar      Ar      Ar      0.000000 39.950000
    1047 A       1047       Ar      Ar      Ar      0.000000 39.950000
    1048 A       1048       Ar      Ar      Ar      0.000000 39.950000
    1049 A       1049       Ar      Ar      Ar      0.000000 39.950000
    1050 A       1050       Ar      Ar      Ar      0.000000 39.950000
    1051 A       1051       Ar      Ar      Ar      0.000000 39.950000
    1052 A       1052       Ar      Ar      Ar      0.000000 39.950000
    1053 A       1053       Ar      Ar      Ar      0.000000 39.950000
    1054 A       1054       Ar      Ar      Ar      0.000000 39.950000
    1055 A       1055       Ar      Ar      Ar      0.000000 39.950000
    1056 A       1056       Ar      Ar      Ar      0.000000 39.950000
    1057 A       1057       Ar      Ar      Ar      0.000000 39.950000
    1058 A       1058       Ar      Ar      Ar      0.000000 39.950000
    1059 A       1059       Ar      Ar      Ar      0.000000 39.950000
    1060 A       1060       Ar      Ar      Ar      0.000000 39.950000
    1061 A       1061       Ar      Ar      Ar      0.000000 39.950000
    1062 A       1062       Ar      Ar      Ar      0.000000 39.950000
    1063 A       1063       Ar      Ar      Ar      0.000000 39.950000
    1064 A       1064       Ar      Ar      Ar      0.000000 39.950000
    1065 A       1065       Ar      Ar      Ar      0.000000 39.950000
    1066 A       1066       Ar      Ar      Ar      0.000000 39.950000
    1067 A       1067       Ar      Ar      Ar      0.000000 39.950000
    1068 A       1068       Ar      Ar      Ar      0.000000 39.950000
    1069 A       1069       Ar      Ar      Ar      0.000000 39.950000
    1070 A       1070       Ar      Ar      Ar      0.000000 39.950000
    1071 A       1071       Ar      Ar      Ar      0.000000 39.950000
    1072 A       1072       Ar      Ar      Ar      0.000000 39.950000
    1073 A       1073       Ar      Ar      Ar      0.000000 39.950000
    1074 A       1074       Ar      Ar      Ar      0.000000 39.950000
    1075 A       1075       Ar      Ar      Ar      0.000000 39.950000
    1076 A       1076       Ar      Ar      Ar      0.000000 39.950000
    1077 A       1077       Ar      Ar      Ar      0.000000 39.950000
    1078 A       1078       Ar      Ar      Ar      0.000000 39.950000
    1079 A       1079       Ar      Ar      Ar      0.000000 39.950000
    1080 A       1080       Ar      Ar      Ar      0.000000 39.950000
    1081 A       1081       Ar      Ar      Ar      0.000000 39.950000
    1082 A       1082       Ar      Ar      Ar      0.000000 39.950000
    1083 A       1083       Ar      Ar      Ar      0.000000 39.950000
    1084 A       1084       Ar      Ar      Ar      0.000000 39.950000
    1085 A       1085       Ar      Ar      Ar      0.000000 39.950000
    1086 A       1086       Ar      Ar      Ar      0.000000 39.950000
    1087 A       1087       Ar      Ar      Ar      0.000000 39.950000
    1088 A       1088       Ar      Ar      Ar      0.000000 39.950000
    1089 A       1089       Ar      Ar      Ar      0.000000 39.950000
    1090 A       1090       Ar      Ar      Ar      0.000000 39.950000
    1091 A       1091       Ar      Ar      Ar      0.000000 39.950000
    1092 A       1092       Ar      Ar      Ar      0.000000 39.950000
    1093 A       1093       Ar      Ar      Ar      0.000000 39.950000
    1094 A       1094       Ar      Ar      Ar      0.000000 39.950000
    1095 A       1095       Ar      Ar      Ar      0.000000 39.950000
    1096 A       1096       Ar      Ar      Ar      0.000000 39.950000
    1097 A       1097       Ar      Ar      Ar      0.000000 39.950000
    1098 A       1098       Ar      Ar      Ar      0.000000 39.950000
    1099 A       1099       Ar      Ar      Ar      0.000000 39.950000
    1100 A       1100       Ar      Ar      Ar      0.000000 39.950000
    1101 A       1101       Ar      Ar      Ar      0.000000 39.950000
    1102 A       1102       Ar      Ar      Ar      0.000000 39.950000
    1103 A       1103       Ar      Ar      Ar      0.000000 39.950000
    1104 A       1104       Ar      Ar      Ar      0.000000 39.950000
    1105 A       1105       Ar      Ar      Ar      0.000000 39.950000
    1106 A       1106       Ar      Ar      Ar      0.000000 39.950000
    1107 A       1107       Ar      Ar      Ar      0.000000 39.950000
    1108 A       1108       Ar      Ar      Ar      0.000000 39.950000
    1109 A       1109       Ar      Ar      Ar      0.000000 39.950000
    1110 A       1110       Ar      Ar      Ar      0.000000 39.950000
    1111 A       1111       Ar      Ar      Ar      0.000000 39.950000
    1112 A       1112       Ar      Ar      Ar      0.000000 39.950000
    1113 A       1113       Ar      Ar      Ar      0.000000 39.950000
    1114 A       1114       Ar      Ar      Ar      0.000000 39.950000
    1115 A       1115       Ar      Ar      Ar      0.000000 39.950000
    1116 A       1116       Ar      Ar      Ar      0.000000 39.950000
    1117 A       1117       Ar      Ar      Ar      0.000000 39.950000
    1118 A       1118       Ar      Ar      Ar      0.000000 39.950000
    1119 A       1119       Ar      Ar      Ar      0.000000 39.950000
    1120 A       1120       Ar      Ar      Ar      0.000000 39.950000
    1121 A       1121       Ar      Ar      Ar      0.000000 39.950000
    1122 A       1122       Ar      Ar      Ar      0.000000 39.950000
    1123 A       1123       Ar      Ar      Ar      0.000000 39.950000
    1124 A       1124       Ar      Ar      Ar      0.000000 39.950000
    1125 A       1125       Ar      Ar      Ar      0.000000 39.950000
    1126 A       1126       Ar      Ar      Ar      0.000000 39.950000
    1127 A       1127       Ar      Ar      Ar      0.000000 39.950000
    1128 A       1128       Ar      Ar      Ar      0.000000 39.950000
    1129 A       1129       Ar      Ar      Ar      0.000000 39.950000
    1130 A       1130       Ar      Ar      Ar      0.000000 39.950000
    1131 A       1131       Ar      Ar      Ar      0.000000 39.950000
    1132 A       1132       Ar      Ar      Ar      0.000000 39.950000
    1133 A       1133       Ar      Ar      Ar      0.000000 39.950000
    1134 A       1134       Ar      Ar      Ar      0.000000 39.950000
    1135 A       1135       Ar      Ar      Ar      0.000000 39.950000
    1136 A       1136       Ar      Ar      Ar      0.000000 39.950000
    1137 A       1137       Ar      Ar      Ar      0.000000 39.950000
    1138 A       1138       Ar      Ar      Ar      0.000000 39.950000
    1139 A       1139       Ar      Ar      Ar      0.000000 39.950000
    1140 A       1140       Ar      Ar      Ar      0.000000 39.950000
    1141 A       1141       Ar      Ar      Ar      0.000000 39.950000
    1142 A       1142       Ar      Ar      Ar      0.000000 39.950000
    1143 A       1143       Ar      Ar      Ar      0.000000 39.950000
    1144 A       1144       Ar      Ar      Ar      0.000000 39.950000
    1145 A       1145       Ar      Ar      Ar      0.000000 39.950000
    1146 A       1146       Ar      Ar      Ar      0.000000 39.950000
    1147 A       1147       Ar      Ar      Ar      0.000000 39.950000
    1148 A       1148       Ar      Ar      Ar      0.000000 39.950000
    1149 A       1149       Ar      Ar      Ar      0.000000 39.950000
    1150 A       1150       Ar      Ar      Ar      0.000000 39.950000
    1151 A       1151       Ar      Ar      Ar      0.000000 39.950000
    1152 A       1152       Ar      Ar      Ar      0.000000 39.950000
    1153 A       1153       Ar      Ar      Ar      0.000000 39.950000
    1154 A       1154       Ar      Ar      Ar      0.000000 39.950000
    1155 A       1155       Ar      Ar      Ar      0.000000 39.950000
    1156 A       1156       Ar      Ar      Ar      0.000000 39.950000
    1157 A       1157       Ar      Ar      Ar      0.000000 39.950000
    1158 A       1158       Ar      Ar      Ar      0.000000 39.950000
    1159 A       1159       Ar      Ar      Ar      0.000000 39.950000
    1160 A       1160       Ar      Ar      Ar      0.000000 39.950000
    1161 A       1161       Ar      Ar      Ar      0.000000 39.950000
    1162 A       1162       Ar      Ar      Ar      0.000000 39.950000
    1163 A       1163       Ar      Ar      Ar      0.000000 39.950000
    1164 A       1164       Ar      Ar      Ar      0.000000 39.950000
    1165 A       1165       Ar      Ar      Ar      0.000000 39.950000
    1166 A       1166       Ar      Ar      Ar      0.000000 39.950000
    1167 A       1167       Ar      Ar      Ar      0.000000 39.950000
    1168 A       1168       Ar      Ar      Ar      0.000000 39.950000
    1169 A       1169       Ar      Ar      Ar      0.000000 39.950000
    1170 A       1170       Ar      Ar      Ar      0.000000 39.950000
    1171 A       1171       Ar      Ar      Ar      0.000000 39.950000
    1172 A       1172       Ar      Ar      Ar      0.000000 39.950000
    1173 A       1173       Ar      Ar      Ar      0.000000 39.950000
    1174 A       1174       Ar      Ar      Ar      0.000000 39.950000
    1175 A       1175       Ar      Ar      Ar      0.000000 39.950000
    1176 A       1176       Ar      Ar      Ar      0.000000 39.950000
    1177 A       1177       Ar      Ar      Ar      0.000000 39.950000
    1178 A       1178       Ar      Ar      Ar      0.000000 39.950000
    1179 A       1179       Ar      Ar      Ar      0.000000 39.950000
    1180 A       1180       Ar      Ar      Ar      0.000000 39.950000
    1181 A       1181       Ar      Ar      Ar      0.000000 39.950000
    1182 A       1182       Ar      Ar      Ar      0.000000 39.950000
    1183 A       1183       Ar      Ar      Ar      0.000000 39.950000
    1184 A       1184       Ar      Ar      Ar      0.000000 39.950000
    1185 A       1185       Ar      Ar      Ar      0.000000 39.950000
    1186 A       1186       Ar      Ar      Ar      0.000000 39.950000
    1187 A       1187       Ar      Ar      Ar      0.000000 39.950000
    1188 A       1188       Ar      Ar      Ar      0.000000 39.950000
    1189 A       1189       Ar      Ar      Ar      0.000000 39.950000
    1190 A       1190       Ar      Ar      Ar      0.000000 39.950000
    1191 A       1191       Ar      Ar      Ar      0.000000 39.950000
    1192 A       1192       Ar      Ar      Ar      0.000000 39.950000
    1193 A       1193       Ar      Ar      Ar      0.000000 39.950000
    1194 A       1194       Ar      Ar      Ar      0.000000 39.950000
    1195 A       1195       Ar      Ar      Ar      0.000000 39.950000
    1196 A       1196       Ar      Ar      Ar      0.000000 39.950000
    1197 A       1197       Ar      Ar      Ar      0.000000 39.950000
    1198 A       1198       Ar      Ar      Ar      0.000000 39.950000
    1199 A       1199       Ar      Ar      Ar      0.000000 39.950000
    1200 A       1200       Ar      Ar      Ar      0.000000 39.950000
    1201 A       1201       Ar      Ar      Ar      0.000000 39.950000
    1202 A       1202       Ar      Ar      Ar      0.000000 39.950000
    1203 A       1203       Ar      Ar      Ar      0.000000 39.950000
    1204 A       1204       Ar      Ar      Ar      0.000000 39.950000
    1205 A       1205       Ar      Ar      Ar      0.000000 39.950000
    1206 A       1206       Ar      Ar      Ar      0.000000 39.950000
    1207 A       1207       Ar      Ar      Ar      0.000000 39.950000
    1208 A       1208       Ar      Ar      Ar      0.000000 39.950000
    1209 A       1209       Ar      Ar      Ar      0.000000 39.950000
    1210 A       1210       Ar      Ar      Ar      0.000000 39.950000
    1211 A       1211       Ar      Ar      Ar      0.000000 39.950000
    1212 A       1212       Ar      Ar      Ar      0.000000 39.950000
    1213 A       1213       Ar      Ar      Ar      0.000000 39.950000
    1214 A       1214       Ar      Ar      Ar      0.000000 39.950000
    1215 A       1215       Ar      Ar      Ar      0.000000 39.950000
    1216 A       1216       Ar      Ar      Ar      0.000000 39.950000
    1217 A       1217       Ar      Ar      Ar      0.000000 39.950000
    1218 A       1218       Ar      Ar      Ar      0.000000 39.950000
    1219 A       1219       Ar      Ar      Ar      0.000000 39.950000
    1220 A       1220       Ar      Ar      Ar      0.000000 39.950000
    1221 A       1221       Ar      Ar      Ar      0.000000 39.950000
    1222 A       1222       Ar      Ar      Ar      0.000000 39.950000
    1223 A       1223       Ar      Ar      Ar      0.000000 39.950000
    1224 A       1224       Ar      Ar      Ar      0.000000 39.950000
    1225 A       1225       Ar      Ar      Ar      0.000000 39.950000
    1226 A       1226       Ar      Ar      Ar      0.000000 39.950000
    1227 A       1227       Ar      Ar      Ar      0.000000 39.950000
    1228 A       1228       Ar      Ar      Ar      0.000000 39.950000
    1229 A       1229       Ar      Ar      Ar      0.000000 39.950000
    1230 A       1230       Ar      Ar      Ar      0.000000 39.950000
    1231 A       1231       Ar      Ar      Ar      0.000000 39.950000
    1232 A       1232       Ar      Ar      Ar      0.000000 39.950000
    1233 A       1233       Ar      Ar      Ar      0.000000 39.950000
    1234 A       1234       Ar      Ar      Ar      0.000000 39.950000
    1235 A       1235       Ar      Ar      Ar      0.000000 39.950000
    1236 A       1236       Ar      Ar      Ar      0.000000 39.950000
    1237 A       1237       Ar      Ar      Ar      0.000000 39.950000
    1238 A       1238       Ar      Ar      Ar      0.000000 39.950000
    1239 A       1239       Ar      Ar      Ar      0.000000 39.950000
    1240 A       1240       Ar      Ar      Ar      0.000000 39.950000
    1241 A       1241       Ar      Ar      Ar      0.000000 39.950000
    1242 A       1242       Ar      Ar      Ar      0.000000 39.950000
    1243 A       1243       Ar      Ar      Ar      0.000000 39.950000
    1244 A       1244       Ar      Ar      Ar      0.000000 39.950000
    1245 A       1245       Ar      Ar      Ar      0.000000 39.950000
    1246 A       1246       Ar      Ar      Ar      0.000000 39.950000
    1247 A       1247       Ar      Ar      Ar      0.000000 39.950000
    1248 A       1248       Ar      Ar      Ar      0.000000 39.950000
    1249 A       1249       Ar      Ar      Ar      0.000000 39.950000
    1250 A       1250       Ar      Ar      Ar      0.000000 39.950000
    1251 A       1251       Ar      Ar      Ar      0.000000 39.950000
    1252 A       1252       Ar      Ar      Ar      0.000000 39.950000
    1253 A       1253       Ar      Ar      Ar      0.000000 39.950000
    1254 A       1254       Ar      Ar      Ar      0.000000 39.950000
    1255 A       1255       Ar      Ar      Ar      0.000000 39.950000
    1256 A       1256       Ar      Ar      Ar      0.000000 39.950000
    1257 A       1257       Ar      Ar      Ar      0.000000 39.950000
    1258 A       1258       Ar      Ar      Ar      0.000000 39.950000
    1259 A       1259       Ar      Ar      Ar      0.000000 39.950000
    1260 A       1260       Ar      Ar      Ar      0.000000 39.950000
    1261 A       1261       Ar      Ar      Ar      0.000000 39.950000
    1262 A       1262       Ar      Ar      Ar      0.000000 39.950000
    1263 A       1263       Ar      Ar      Ar      0.000000 39.950000
    1264 A       1264       Ar      Ar      Ar      0.000000 39.950000
    1265 A       1265       Ar      Ar      Ar      0.000000 39.950000
    1266 A       1266       Ar      Ar      Ar      0.000000 39.950000
    1267 A       1267       Ar      Ar      Ar      0.000000 39.950000
    1268 A       1268       Ar      Ar      Ar      0.000000 39.950000
    1269 A       1269       Ar      Ar      Ar      0.000000 39.950000
    1270 A       1270       Ar      Ar      Ar      0.000000 39.950000
    1271 A       1271       Ar      Ar      Ar      0.000000 39.950000
    1272 A       1272       Ar      Ar      Ar      0.000000 39.950000
    1273 A       1273       Ar      Ar      Ar      0.000000 39.950000
    1274 A       1274       Ar      Ar      Ar      0.000000 39.950000
    1275 A       1275       Ar      Ar      Ar      0.000000 39.950000
    1276 A       1276       Ar      Ar      Ar      0.000000 39.950000
    1277 A       1277       Ar      Ar      Ar      0.000000 39.950000
    1278 A       1278       Ar      Ar      Ar      0.000000 39.950000
    1279 A       1279       Ar      Ar      Ar      0.000000 39.950000
    1280 A       1280       Ar      Ar      Ar      0.000000 39.950000
    1281 A       1281       Ar      Ar      Ar      0.000000 39.950000
    1282 A       1282       Ar      Ar      Ar      0.000000 39.950000
    1283 A       1283       Ar      Ar      Ar      0.000000 39.950000
    1284 A       1284       Ar      Ar      Ar      0.000000 39.950000
    1285 A       1285       Ar      Ar      Ar      0.000000 39.950000
    1286 A       1286       Ar      Ar      Ar      0.000000 39.950000
    1287 A       1287       Ar      Ar      Ar      0.000000 39.950000
    1288 A       1288       Ar      Ar      Ar      0.000000 39.950000
    1289 A       1289       Ar      Ar      Ar      0.000000 39.950000
    1290 A       1290       Ar      Ar      Ar      0.000000 39.950000
    1291 A       1291       Ar      Ar      Ar      0.000000 39.950000
    1292 A       1292       Ar      Ar      Ar      0.000000 39.950000
    1293 A       1293       Ar      Ar      Ar      0.000000 39.950000
    1294 A       1294       Ar      Ar      Ar      0.000000 39.950000
    1295 A       1295       Ar      Ar      Ar      0.000000 39.950000
    1296 A       1296       Ar      Ar      Ar      0.000000 39.950000
    1297 A       1297       Ar      Ar      Ar      0.000000 39.950000
    1298 A       1298       Ar      Ar      Ar      0.000000 39.950000
    1299 A       1299       Ar      Ar      Ar      0.000000 39.950000
    1300 A       1300       Ar      Ar      Ar      0.000000 39.950000
    1301 A       1301       Ar      Ar      Ar      0.000000 39.950000
    1302 A       1302       Ar      Ar      Ar      0.000000 39.950000
    1303 A       1303       Ar      Ar      Ar      0.000000 39.950000
    1304 A       1304       Ar      Ar      Ar      0.000000 39.950000
    1305 A       1305       Ar      Ar      Ar      0.000000 39.950000
    1306 A       1306       Ar      Ar      Ar      0.000000 39.950000
    1307 A       1307       Ar      Ar      Ar      0.000000 39.950000
    1308 A       1308       Ar      Ar      Ar      0.000000 39.950000
    1309 A       1309       Ar      Ar      Ar      0.000000 39.950000
    1310 A       1310       Ar      Ar      Ar      0.000000 39.950000
    1311 A       1311       Ar      Ar      Ar      0.000000 39.950000
    1312 A       1312       Ar      Ar      Ar      0.000000 39.950000
    1313 A       1313       Ar      Ar      Ar      0.000000 39.950000
    1314 A       1314       Ar      Ar      Ar      0.000000 39.950000
    1315 A       1315       Ar      Ar      Ar      0.000000 39.950000
    1316 A       1316       Ar      Ar      Ar      0.000000 39.950000
    1317 A       1317       Ar      Ar      Ar      0.000000 39.950000
    1318 A       1318       Ar      Ar      Ar      0.000000 39.950000
    1319 A       1319       Ar      Ar      Ar      0.000000 39.950000
    1320 A       1320       Ar      Ar      Ar      0.000000 39.950000
    1321 A       1321       Ar      Ar      Ar      0.000000 39.950000
    1322 A       1322       Ar      Ar      Ar      0.000000 39.950000
    1323 A       1323       Ar      Ar      Ar      0.000000 39.950000
    1324 A       1324       Ar      Ar      Ar      0.000000 39.950000
    1325 A       1325       Ar      Ar      Ar      0.000000 39.950000
    1326 A       1326       Ar      Ar      Ar      0.000000 39.950000
    1327 A       1327       Ar      Ar      Ar      0.000000 39.950000
    1328 A       1328       Ar      Ar      Ar      0.000000 39.950000
    1329 A       1329       Ar      Ar      Ar      0.000000 39.950000
    1330 A       1330       Ar      Ar      Ar      0.000000 39.950000
    1331 A       1331       Ar      Ar      Ar      0.000000 39.950000
    1332 A       1332       Ar      Ar      Ar      0.000000 39.950000
    1333 A       1333       Ar      Ar      Ar      0.000000 39.950000
    1334 A       1334       Ar      Ar      Ar      0.000000 39.950000
    1335 A       1335       Ar      Ar      Ar      0.000000 39.950000
    1336 A       1336       Ar      Ar      Ar      0.000000 39.950000
    1337 A       1337       Ar      Ar      Ar      0.000000 39.950000
    1338 A       1338       Ar      Ar      Ar      0.000000 39.950000
    1339 A       1339       Ar      Ar      Ar      0.000000 39.950000
    1340 A       1340       Ar      Ar      Ar      0.000000 39.950000
    1341 A       1341       Ar      Ar      Ar      0.000000 39.950000
    1342 A       1342       Ar      Ar      Ar      0.000000 39.950000
    1343 A       1343       Ar      Ar      Ar      0.000000 39.950000
    1344 A       1344       Ar      Ar      Ar      0.000000 39.950000
    1345 A       1345       Ar      Ar      Ar      0.000000 39.950000
    1346 A       1346       Ar      Ar      Ar      0.000000 39.950000
    1347 A       1347       Ar      Ar      Ar      0.000000 39.950000
    1348 A       1348       Ar      Ar      Ar      0.000000 39.950000
    1349 A       1349       Ar      Ar      Ar      0.000000 39.950000
    1350 A       1350       Ar      Ar      Ar      0.000000 39.950000
    1351 A       1351       Ar      Ar      Ar      0.000000 39.950000
    1352 A       1352       Ar      Ar      Ar      0.000000 39.950000
    1353 A       1353       Ar      Ar      Ar      0.000000 39.950000
    1354 A       1354       Ar      Ar      Ar      0.000000 39.950000
    1355 A       1355       Ar      Ar      Ar      0.000000 39.950000
    1356 A       1356       Ar      Ar      Ar      0.000000 39.950000
    1357 A       1357       Ar      Ar      Ar      0.000000 39.950000
    1358 A       1358       Ar      Ar      Ar      0.000000 39.950000
    1359 A       1359       Ar      Ar      Ar      0.000000 39.950000
    1360 A       1360       Ar      Ar      Ar      0.000000 39.950000
    1361 A       1361       Ar      Ar      Ar      0.000000 39.950000
    1362 A       1362       Ar      Ar      Ar      0.000000 39.950000
    1363 A       1363       Ar      Ar      Ar      0.000000 39.950000
    1364 A       1364       Ar      Ar      Ar      0.000000 39.950000
    1365 A       1365       Ar      Ar      Ar      0.000000 39.950000
    1366 A       1366       Ar      Ar      Ar      0.000000 39.950000
    1367 A       1367       Ar      Ar      Ar      0.000000 39.950000
    1368 A       1368       Ar      Ar      Ar      0.000000 39.950000
    1369 A       1369       Ar      Ar      Ar      0.000000 39.950000
    1370 A       1370       Ar      Ar      Ar      0.000000 39.950000
    1371 A       1371       Ar      Ar      Ar      0.000000 39.950000
    1372 A       1372       Ar      Ar      Ar      0.000000 39.950000
    1373 A       1373       Ar      Ar      Ar      0.000000 39.950000
    1374 A       1374       Ar      Ar      Ar      0.000000 39.950000
    1375 A       1375       Ar      Ar      Ar      0.000000 39.950000
    1376 A       1376       Ar      Ar      Ar      0.000000 39.950000
    1377 A       1377       Ar      Ar      Ar      0.000000 39.950000
    1378 A       1378       Ar      Ar      Ar      0.000000 39.950000
    1379 A       1379       Ar      Ar      Ar      0.000000 39.950000
    1380 A       1380       Ar      Ar      Ar      0.000000 39.950000
    1381 A       1381       Ar      Ar      Ar      0.000000 39.950000
    1382 A       1382       Ar      Ar      Ar      0.000000 39.950000
    1383 A       1383       Ar      Ar      Ar      0.000000 39.950000
    1384 A       1384       Ar      Ar      Ar      0.000000 39.950000
    1385 A       1385       Ar      Ar      Ar      0.000000 39.950000
    1386 A       1386       Ar      Ar      Ar      0.000000 39.950000
    1387 A       1387       Ar      Ar      Ar      0.000000 39.950000
    1388 A       1388       Ar      Ar      Ar      0.000000 39.950000
    1389 A       1389       Ar      Ar      Ar      0.000000 39.950000
    1390 A       1390       Ar      Ar      Ar      0.000000 39.950000
    1391 A       1391       Ar      Ar      Ar      0.000000 39.950000
    1392 A       1392       Ar      Ar      Ar      0.000000 39.950000
    1393 A       1393       Ar      Ar      Ar      0.000000 39.950000
    1394 A       1394       Ar      Ar      Ar      0.000000 39.950000
    1395 A       1395       Ar      Ar      Ar      0.000000 39.950000
    1396 A       1396       Ar      Ar      Ar      0.000000 39.950000
    1397 A       1397       Ar      Ar      Ar      0.000000 39.950000
    1398 A       1398       Ar      Ar      Ar      0.000000 39.950000
    1399 A       1399       Ar      Ar      Ar      0.000000 39.950000
    1400 A       1400       Ar      Ar      Ar      0.000000 39.950000
    1401 A       1401       Ar      Ar      Ar      0.000000 39.950000
    1402 A       1402       Ar      Ar      Ar      0.000000 39.950000
    1403 A       1403       Ar      Ar      Ar      0.000000 39.950000
    1404 A       1404       Ar      Ar      Ar      0.000000 39.950000
    1405 A       1405       Ar      Ar      Ar      0.000000 39.950000
    1406 A       1406       Ar      Ar      Ar      0.000000 39.950000
    1407 A       1407       Ar      Ar      Ar      0.000000 39.950000
    1408 A       1408       Ar      Ar      Ar      0.000000 39.950000
    1409 A       1409       Ar      Ar      Ar      0.000000 39.950000
    1410 A       1410       Ar      Ar      Ar      0.000000 39.950000
    1411 A       1411       Ar      Ar      Ar      0.000000 39.950000
    1412 A       1412       Ar      Ar      Ar      0.000000 39.950000
    1413 A       1413       Ar      Ar      Ar      0.000000 39.950000
    1414 A       1414       Ar      Ar      Ar      0.000000 39.950000
    1415 A       1415       Ar      Ar      Ar      0.000000 39.950000
    1416 A       1416       Ar      Ar      Ar      0.000000 39.950000
    1417 A       1417       Ar      Ar      Ar      0.000000 39.950000
    1418 A       1418       Ar      Ar      Ar      0.000000 39.950000
    1419 A       1419       Ar      Ar      Ar      0.000000 39.950000
    1420 A       1420       Ar      Ar      Ar      0.000000 39.950000
    1421 A       1421       Ar      Ar      Ar      0.000000 39.950000
    1422 A       1422       Ar      Ar      Ar      0.000000 39.950000
    1423 A       1423       Ar      Ar      Ar      0.000000 39.950000
    1424 A       1424       Ar      Ar      Ar      0.000000 39.950000
    1425 A       1425       Ar      Ar      Ar      0.000000 39.950000
    1426 A       1426       Ar      Ar      Ar      0.000000 39.950000
    1427 A       1427       Ar      Ar      Ar      0.000000 39.950000
    1428 A       1428       Ar      Ar      Ar      0.000000 39.950000
    1429 A       1429       Ar      Ar      Ar      0.000000 39.950000
    1430 A       1430       Ar      Ar      Ar      0.000000 39.950000
    1431 A       1431       Ar      Ar      Ar      0.000000 39.950000
    1432 A       1432       Ar      Ar      Ar      0.000000 39.950000
    1433 A       1433       Ar      Ar      Ar      0.000000 39.950000
    1434 A       1434       Ar      Ar      Ar      0.000000 39.950000
    1435 A       1435       Ar      Ar      Ar      0.000000 39.950000
    1436 A       1436       Ar      Ar      Ar      0.000000 39.950000
    1437 A       1437       Ar      Ar      Ar      0.000000 39.950000
    1438 A       1438       Ar      Ar      Ar      0.000000 39.950000
    1439 A       1439       Ar      Ar      Ar      0.000000 39.950000
    1440 A       1440       Ar      Ar      Ar      0.000000 39.950000
    1441 A       1441       Ar      Ar      Ar      0.000000 39.950000
    1442 A       1442       Ar      Ar      Ar      0.000000 39.950000
    1443 A       1443       Ar      Ar      Ar      0.000000 39.950000
    1444 A       1444       Ar      Ar      Ar      0.000000 39.950000
    1445 A       1445       Ar      Ar      Ar      0.000000 39.950000
    1446 A       1446       Ar      Ar      Ar      0.000000 39.950000
    1447 A       1447       Ar      Ar      Ar      0.000000 39.950000
    1448 A       1448       Ar      Ar      Ar      0.000000 39.950000
    1449 A       1449       Ar      Ar      Ar      0.000000 39.950000
    1450 A       1450       Ar      Ar      Ar      0.000000 39.950000
    1451 A       1451       Ar      Ar      Ar      0.000000 39.950000
    1452 A       1452       Ar      Ar      Ar      0.000000 39.950000
    1453 A       1453       Ar      Ar      Ar      0.000000 39.950000
    1454 A       1454       Ar      Ar      Ar      0.000000 39.950000
    1455 A       1455       Ar      Ar      Ar      0.000000 39.950000
    1456 A       1456       Ar      Ar      Ar      0.000000 39.950000
    1457 A       1457       Ar      Ar      Ar      0.000000 39.950000
    1458 A       1458       Ar      Ar      Ar      0.000000 39.950000
    1459 A       1459       Ar      Ar      Ar      0.000000 39.950000
    1460 A       1460       Ar      Ar      Ar      0.000000 39.950000
    1461 A       1461       Ar      Ar      Ar      0.000000 39.950000
    1462 A       1462       Ar      Ar      Ar      0.000000 39.950000
    1463 A       1463       Ar      Ar      Ar      0.000000 39.950000
    1464 A       1464       Ar      Ar      Ar      0.000000 39.950000
    1465 A       1465       Ar      Ar      Ar      0.000000 39.950000
    1466 A       1466       Ar      Ar      Ar      0.000000 39.950000
    1467 A       1467       Ar      Ar      Ar      0.000000 39.950000
    1468 A       1468       Ar      Ar      Ar      0.000000 39.950000
    1469 A       1469       Ar      Ar      Ar      0.000000 39.950000
    1470 A       1470       Ar      Ar      Ar      0.000000 39.950000
    1471 A       1471       Ar      Ar      Ar      0.000000 39.950000
    1472 A       1472       Ar      Ar      Ar      0.000000 39.950000
    1473 A       1473       Ar      Ar      Ar      0.000000 39.950000
    1474 A       1474       Ar      Ar      Ar      0.000000 39.950000
    1475 A       1475       Ar      Ar      Ar      0.000000 39.950000
    1476 A       1476       Ar      Ar      Ar      0.000000 39.950000
    1477 A       1477       Ar      Ar      Ar      0.000000 39.950000
    1478 A       1478       Ar      Ar      Ar      0.000000 39.950000
    1479 A       1479       Ar      Ar      Ar      0.000000 39.950000
    1480 A       1480       Ar      Ar      Ar      0.000000 39.950000
    1481 A       1481       Ar      Ar      Ar      0.000000 39.950000
    1482 A       1482       Ar      Ar      Ar      0.000000 39.950000
    1483 A       1483       Ar      Ar      Ar      0.000000 39.950000
    1484 A       1484       Ar      Ar      Ar      0.000000 39.950000
    1485 A       1485       Ar      Ar      Ar      0.000000 39.950000
    1486 A       1486       Ar      Ar      Ar      0.000000 39.950000
    1487 A       1487       Ar      Ar      Ar      0.000000 39.950000
    1488 A       1488       Ar      Ar      Ar      0.000000 39.950000
    1489 A       1489       Ar      Ar      Ar      0.000000 39.950000
    1490 A       1490       Ar      Ar      Ar      0.000000 39.950000
    1491 A       1491       Ar      Ar      Ar      0.000000 39.950000
    1492 A       1492       Ar      Ar      Ar      0.000000 39.950000
    1493 A       1493       Ar      Ar      Ar      0.000000 39.950000
    1494 A       1494       Ar      Ar      Ar      0.000000 39.950000
    1495 A       1495       Ar      Ar      Ar      0.000000 39.950000
    1496 A       1496       Ar      Ar      Ar      0.000000 39.950000
    1497 A       1497       Ar      Ar      Ar      0.000000 39.950000
    1498 A       1498       Ar      Ar      Ar      0.000000 39.950000
    1499 A       1499       Ar      Ar      Ar      0.000000 39.950000
    1500 A       1500       Ar      Ar      Ar      0.000000 39.950000
    1501 A       1501       Ar      Ar      Ar      0.000000 39.950000
    1502 A       1502       Ar      Ar      Ar      0.000000 39.950000
    1503 A       1503       Ar      Ar      Ar      0.000000 39.950000
    1504 A       1504       Ar      Ar      Ar      0.000000 39.950000
    1505 A       1505       Ar      Ar      Ar      0.000000 39.950000
    1506 A       1506       Ar      Ar      Ar      0.000000 39.950000
    1507 A       1507       Ar      Ar      Ar      0.000000 39.950000
    1508 A       1508       Ar      Ar      Ar      0.000000 39.950000
    1509 A       1509       Ar      Ar      Ar      0.000000 39.950000
    1510 A       1510       Ar      Ar      Ar      0.000000 39.950000
    1511 A       1511       Ar      Ar      Ar      0.000000 39.950000
    1512 A       1512       Ar      Ar      Ar      0.000000 39.950000
    1513 A       1513       Ar      Ar      Ar      0.000000 39.950000
    1514 A       1514       Ar      Ar      Ar      0.000000 39.950000
    1515 A       1515       Ar      Ar      Ar      0.000000 39.950000
    1516 A       1516       Ar      Ar      Ar      0.000000 39.950000
    1517 A       1517       Ar      Ar      Ar      0.000000 39.950000
    1518 A       1518       Ar      Ar      Ar      0.000000 39.950000
    1519 A       1519       Ar      Ar      Ar      0.000000 39.950000
    1520 A       1520       Ar      Ar      Ar      0.000000 39.950000
    1521 A       1521       Ar      Ar      Ar      0.000000 39.950000
    1522 A       1522       Ar      Ar      Ar      0.000000 39.950000
    1523 A       1523       Ar      Ar      Ar      0.000000 39.950000
    1524 A       1524       Ar      Ar      Ar      0.000000 39.950000
    1525 A       1525       Ar      Ar      Ar      0.000000 39.950000
    1526 A       1526       Ar      Ar      Ar      0.000000 39.950000
    1527 A       1527       Ar      Ar      Ar      0.000000 39.950000
    1528 A       1528       Ar      Ar      Ar      0.000000 39.950000
    1529 A       1529       Ar      Ar      Ar      0.000000 39.950000
    1530 A       1530       Ar      Ar      Ar      0.000000 39.950000
    1531 A       1531       Ar      Ar      Ar      0.000000 39.950000
    1532 A       1532       Ar      Ar      Ar      0.000000 39.950000
    1533 A       1533       Ar      Ar      Ar      0.000000 39.950000
    1534 A       1534       Ar      Ar      Ar      0.000000 39.950000
    1535 A       1535       Ar      Ar      Ar      0.000000 39.950000
    1536 A       1536       Ar      Ar      Ar      0.000000 39.950000
    1537 A       1537       Ar      Ar      Ar      0.000000 39.950000
    1538 A       1538       Ar      Ar      Ar      0.000000 39.950000
    1539 A       1539       Ar      Ar      Ar      0.000000 39.950000
    1540 A       1540       Ar      Ar      Ar      0.000000 39.950000
    1541 A       1541       Ar      Ar      Ar      0.000000 39.950000
    1542 A       1542       Ar      Ar      Ar      0.000000 39.950000
    1543 A       1543       Ar      Ar      Ar      0.000000 39.950000
    1544 A       1544       Ar      Ar      Ar      0.000000 39.950000
    1545 A       1545       Ar      Ar      Ar      0.000000 39.950000
    1546 A       1546       Ar      Ar      Ar      0.000000 39.950000
    1547 A       1547       Ar      Ar      Ar      0.000000 39.950000
    1548 A       1548       Ar      Ar      Ar      0.000000 39.950000
    1549 A       1549       Ar      Ar      Ar      0.000000 39.950000
    1550 A       1550       Ar      Ar      Ar      0.000000 39.950000
    1551 A       1551       Ar      Ar      Ar      0.000000 39.950000
    1552 A       1552       Ar      Ar      Ar      0.000000 39.950000
    1553 A       1553       Ar      Ar      Ar      0.000000 39.950000
    1554 A       1554       Ar      Ar      Ar      0.000000 39.950000
    1555 A       1555       Ar      Ar      Ar      0.000000 39.950000
    1556 A       1556       Ar      Ar      Ar      0.000000 39.950000
    1557 A       1557       Ar      Ar      Ar      0.000000 39.950000
    1558 A       1558       Ar      Ar      Ar      0.000000 39.950000
    1559 A       1559       Ar      Ar      Ar      0.000000 39.950000
    1560 A       1560       Ar      Ar      Ar      0.000000 39.950000
    1561 A       1561       Ar      Ar      Ar      0.000000 39.950000
    1562 A       1562       Ar      Ar      Ar      0.000000 39.950000
    1563 A       1563       Ar      Ar      Ar      0.000000 39.950000
    1564 A       1564       Ar      Ar      Ar      0.000000 39.950000
    1565 A       1565       Ar      Ar      Ar      0.000000 39.950000
    1566 A       1566       Ar      Ar      Ar      0.000000 39.950000
    1567 A       1567       Ar      Ar      Ar      0.000000 39.950000
    1568 A       1568       Ar      Ar      Ar      0.000000 39.950000
    1569 A       1569       Ar      Ar      Ar      0.000000 39.950000
    1570 A       1570       Ar      Ar      Ar      0.000000 39.950000
    1571 A       1571       Ar      Ar      Ar      0.000000 39.950000
    1572 A       1572       Ar      Ar      Ar      0.000000 39.950000
    1573 A       1573       Ar      Ar      Ar      0.000000 39.950000
    1574 A       1574       Ar      Ar      Ar      0.000000 39.950000
    1575 A       1575       Ar      Ar      Ar      0.000000 39.950000
    1576 A       1576       Ar      Ar      Ar      0.000000 39.950000
    1577 A       1577       Ar      Ar      Ar      0.000000 39.950000
    1578 A       1578       Ar      Ar      Ar      0.000000 39.950000
    1579 A       1579       Ar      Ar      Ar      0.000000 39.950000
    1580 A       1580       Ar      Ar      Ar      0.000000 39.950000
    1581 A       1581       Ar      Ar      Ar      0.000000 39.950000
    1582 A       1582       Ar      Ar      Ar      0.000000 39.950000
    1583 A       1583       Ar      Ar      Ar      0.000000 39.950000
    1584 A       1584       Ar      Ar      Ar      0.000000 39.950000
    1585 A       1585       Ar      Ar      Ar      0.000000 39.950000
    1586 A       1586       Ar      Ar      Ar      0.000000 39.950000
    1587 A       1587       Ar      Ar      Ar      0.000000 39.950000
    1588 A       1588       Ar      Ar      Ar      0.000000 39.950000
    1589 A       1589       Ar      Ar      Ar      0.000000 39.950000
    1590 A       1590       Ar      Ar      Ar      0.000000 39.950000
    1591 A       1591       Ar      Ar      Ar      0.000000 39.950000
    1592 A       1592       Ar      Ar      Ar      0.000000 39.950000
    1593 A       1593       Ar      Ar      Ar      0.000000 39.950000
    1594 A       1594       Ar      Ar      Ar      0.000000 39.950000
    1595 A       1595       Ar      Ar      Ar      0.000000 39.950000
    1596 A       1596       Ar      Ar      Ar      0.000000 39.950000
    1597 A       1597       Ar      Ar      Ar      0.000000 39.950000
    1598 A       1598       Ar      Ar      Ar      0.000000 39.950000
    1599 A       1599       Ar      Ar      Ar      0.000000 39.950000
    1600 A       1600       Ar      Ar      Ar      0.000000 39.950000
    1601 A       1601       Ar      Ar      Ar      0.000000 39.950000
    1602 A       1602       Ar      Ar      Ar      0.000000 39.950000
    1603 A       1603       Ar      Ar      Ar      0.000000 39.950000
    1604 A       1604       Ar      Ar      Ar      0.000000 39.950000
    1605 A       1605       Ar      Ar      Ar      0.000000 39.950000
    1606 A       1606       Ar      Ar      Ar      0.000000 39.950000
    1607 A       1607       Ar      Ar      Ar      0.000000 39.950000
    1608 A       1608       Ar      Ar      Ar      0.000000 39.950000
    1609 A       1609       Ar      Ar      Ar      0.000000 39.950000
    1610 A       1610       Ar      Ar      Ar      0.000000 39.950000
    1611 A       1611       Ar      Ar      Ar      0.000000 39.950000
    1612 A       1612       Ar      Ar      Ar      0.000000 39.950000
    1613 A       1613       Ar      Ar      Ar      0.000000 39.950000
    1614 A       1614       Ar      Ar      Ar      0.000000 39.950000
    1615 A       1615       Ar      Ar      Ar      0.000000 39.950000
    1616 A       1616       Ar      Ar      Ar      0.000000 39.950000
    1617 A       1617       Ar      Ar      Ar      0.000000 39.950000
    1618 A       1618       Ar      Ar      Ar      0.000000 39.950000
    1619 A       1619       Ar      Ar      Ar      0.000000 39.950000
    1620 A       1620       Ar      Ar      Ar      0.000000 39.950000
    1621 A       1621       Ar      Ar      Ar      0.000000 39.950000
    1622 A       1622       Ar      Ar      Ar      0.000000 39.950000
    1623 A       1623       Ar      Ar      Ar      0.000000 39.950000
    1624 A       1624       Ar      Ar      Ar      0.000000 39.950000
    1625 A       1625       Ar      Ar      Ar      0.000000 39.950000
    1626 A       1626       Ar      Ar      Ar      0.000000 39.950000
    1627 A       1627       Ar      Ar      Ar      0.000000 39.950000
    1628 A       1628       Ar      Ar      Ar      0.000000 39.950000
    1629 A       1629       Ar      Ar      Ar      0.000000 39.950000
    1630 A       1630       Ar      Ar      Ar      0.000000 39.950000
    1631 A       1631       Ar      Ar      Ar      0.000000 39.950000
    1632 A       1632       Ar      Ar      Ar      0.000000 39.950000
    1633 A       1633       Ar      Ar      Ar      0.000000 39.950000
    1634 A       1634       Ar      Ar      Ar      0.000000 39.950000
    1635 A       1635       Ar      Ar      Ar      0.000000 39.950000
    1636 A       1636       Ar      Ar      Ar      0.000000 39.950000
    1637 A       1637       Ar      Ar      Ar      0.000000 39.950000
    1638 A       1638       Ar      Ar      Ar      0.000000 39.950000
    1639 A       1639       Ar      Ar      Ar      0.000000 39.950000
    1640 A       1640       Ar      Ar      Ar      0.000000 39.950000
    1641 A       1641       Ar      Ar      Ar      0.000000 39.950000
    1642 A       1642       Ar      Ar      Ar      0.000000 39.950000
    1643 A       1643       Ar      Ar      Ar      0.000000 39.950000
    1644 A       1644       Ar      Ar      Ar      0.000000 39.950000
    1645 A       1645       Ar      Ar      Ar      0.000000 39.950000
    1646 A       1646       Ar      Ar      Ar      0.000000 39.950000
    1647 A       1647       Ar      Ar      Ar      0.000000 39.950000
    1648 A       1648       Ar      Ar      Ar      0.000000 39.950000
    1649 A       1649       Ar      Ar      Ar      0.000000 39.950000
    1650 A       1650       Ar      Ar      Ar      0.000000 39.950000
    1651 A       1651       Ar      Ar      Ar      0.000000 39.950000
    1652 A       1652       Ar      Ar      Ar      0.000000 39.950000
    1653 A       1653       Ar      Ar      Ar      0.000000 39.950000
    1654 A       1654       Ar      Ar      Ar      0.000000 39.950000
    1655 A       1655       Ar      Ar      Ar      0.000000 39.950000
    1656 A       1656       Ar      Ar      Ar      0.000000 39.950000
    1657 A       1657       Ar      Ar      Ar      0.000000 39.950000
    1658 A       1658       Ar      Ar      Ar      0.000000 39.950000
    1659 A       1659       Ar      Ar      Ar      0.000000 39.950000
    1660 A       1660       Ar      Ar      Ar      0.000000 39.950000
    1661 A       1661       Ar      Ar      Ar      0.000000 39.950000
    1662 A       1662       Ar      Ar      Ar      0.000000 39.950000
    1663 A       1663       Ar      Ar      Ar      0.000000 39.950000
    1664 A       1664       Ar      Ar      Ar      0.000000 39.950000
    1665 A       1665       Ar      Ar      Ar      0.000000 39.950000
    1666 A       1666       Ar      Ar      Ar      0.000000 39.950000
    1667 A       1667       Ar      Ar      Ar      0.000000 39.950000
    1668 A       1668       Ar      Ar      Ar      0.000000 39.950000
    1669 A       1669       Ar      Ar      Ar      0.000000 39.950000
    1670 A       1670       Ar      Ar      Ar      0.000000 39.950000
    1671 A       1671       Ar      Ar      Ar      0.000000 39.950000
    1672 A       1672       Ar      Ar      Ar      0.000000 39.950000
    1673 A       1673       Ar      Ar      Ar      0.000000 39.950000
    1674 A       1674       Ar      Ar      Ar      0.000000 39.950000
    1675 A       1675       Ar      Ar      Ar      0.000000 39.950000
    1676 A       1676       Ar      Ar      Ar      0.000000 39.950000
    1677 A       1677       Ar      Ar      Ar      0.000000 39.950000
    1678 A       1678       Ar      Ar      Ar      0.000000 39.950000
    1679 A       1679       Ar      Ar      Ar      0.000000 39.950000
    1680 A       1680       Ar      Ar      Ar      0.000000 39.950000
    1681 A       1681       Ar      Ar      Ar      0.000000 39.950000
    1682 A       1682       Ar      Ar      Ar      0.000000 39.950000
    1683 A       1683       Ar      Ar      Ar      0.000000 39.950000
    1684 A       1684       Ar      Ar      Ar      0.000000 39.950000
    1685 A       1685       Ar      Ar      Ar      0.000000 39.950000
    1686 A       1686       Ar      Ar      Ar      0.000000 39.950000
    1687 A       1687       Ar      Ar      Ar      0.000000 39.950000
    1688 A       1688       Ar      Ar      Ar      0.000000 39.950000
    1689 A       1689       Ar      Ar      Ar      0.000000 39.950000
    1690 A       1690       Ar      Ar      Ar      0.000000 39.950000
    1691 A       1691       Ar      Ar      Ar      0.000000 39.950000
    1692 A       1692       Ar      Ar      Ar      0.000000 39.950000
    1693 A       1693       Ar      Ar      Ar      0.000000 39.950000
    1694 A       1694       Ar      Ar      Ar      0.000000 39.950000
    1695 A       1695       Ar      Ar      Ar      0.000000 39.950000
    1696 A       1696       Ar      Ar      Ar      0.000000 39.950000
    1697 A       1697       Ar      Ar      Ar      0.000000 39.950000
    1698 A       1698       Ar      Ar      Ar      0.000000 39.950000
    1699 A       1699       Ar      Ar      Ar      0.000000 39.950000
    1700 A       1700       Ar      Ar      Ar      0.000000 39.950000
    1701 A       1701       Ar      Ar      Ar      0.000000 39.950000
    1702 A       1702       Ar      Ar      Ar      0.000000 39.950000
    1703 A       1703       Ar      Ar      Ar      0.000000 39.950000
    1704 A       1704       Ar      Ar      Ar      0.000000 39.950000
    1705 A       1705       Ar      Ar      Ar      0.000000 39.950000
    1706 A       1706       Ar      Ar      Ar      0.000000 39.950000
    1707 A       1707       Ar      Ar      Ar      0.000000 39.950000
    1708 A       1708       Ar      Ar      Ar      0.000000 39.950000
    1709 A       1709       Ar      Ar      Ar      0.000000 39.950000
    1710 A       1710       Ar      Ar      Ar      0.000000 39.950000
    1711 A       1711       Ar      Ar      Ar      0.000000 39.950000
    1712 A       1712       Ar      Ar      Ar      0.000000 39.950000
    1713 A       1713       Ar      Ar      Ar      0.000000 39.950000
    1714 A       1714       Ar      Ar      Ar      0.000000 39.950000
    1715 A       1715       Ar      Ar      Ar      0.000000 39.950000
    1716 A       1716       Ar      Ar      Ar      0.000000 39.950000
    1717 A       1717       Ar      Ar      Ar      0.000000 39.950000
    1718 A       1718       Ar      Ar      Ar      0.000000 39.950000
    1719 A       1719       Ar      Ar      Ar      0.000000 39.950000
    1720 A       1720       Ar      Ar      Ar      0.000000 39.950000
    1721 A       1721       Ar      Ar      Ar      0.000000 39.950000
    1722 A       1722       Ar      Ar      Ar      0.000000 39.950000
    1723 A       1723       Ar      Ar      Ar      0.000000 39.950000
    1724 A       1724       Ar      Ar      Ar      0.000000 39.950000
    1725 A       1725       Ar      Ar      Ar      0.000000 39.950000
    1726 A       1726       Ar      Ar      Ar      0.000000 39.950000
    1727 A       1727       Ar      Ar      Ar      0.000000 39.950000
    1728 A       1728       Ar      Ar      Ar      0.000000 39.950000
    1729 A       1729       Ar      Ar      Ar      0.000000 39.950000
    1730 A       1730       Ar      Ar      Ar      0.000000 39.950000
    1731 A       1731       Ar      Ar      Ar      0.000000 39.950000
    1732 A       1732       Ar      Ar      Ar      0.000000 39.950000
    1733 A       1733       Ar      Ar      Ar      0.000000 39.950000
    1734 A       1734       Ar      Ar      Ar      0.000000 39.950000
    1735 A       1735       Ar      Ar      Ar      0.000000 39.950000
    1736 A       1736       Ar      Ar      Ar      0.000000 39.950000
    1737 A       1737       Ar      Ar      Ar      0.000000 39.950000
    1738 A       1738       Ar      Ar      Ar      0.000000 39.950000
    1739 A       1739       Ar      Ar      Ar      0.000000 39.950000
    1740 A       1740       Ar      Ar      Ar      0.000000 39.950000
    1741 A       1741       Ar      Ar      Ar      0.000000 39.950000
    1742 A       1742       Ar      Ar      Ar      0.000000 39.950000
    1743 A       1743       Ar      Ar      Ar      0.000000 39.950000
    1744 A       1744       Ar      Ar      Ar      0.000000 39.950000
    1745 A       1745       Ar      Ar      Ar      0.000000 39.950000
    1746 A       1746       Ar      Ar      Ar      0.000000 39.950000
    1747 A       1747       Ar      Ar      Ar      0.000000 39.950000
    1748 A       1748       Ar      Ar      Ar      0.000000 39.950000
    1749 A       1749       Ar      Ar      Ar      0.000000 39.950000
    1750 A       1750       Ar      Ar      Ar      0.000000 39.950000
    1751 A       1751       Ar      Ar      Ar      0.000000 39.950000
    1752 A       1752       Ar      Ar      Ar      0.000000 39.950000
    1753 A       1753       Ar      Ar      Ar      0.000000 39.950000
    1754 A       1754       Ar      Ar      Ar      0.000000 39.950000
    1755 A       1755       Ar      Ar      Ar      0.000000 39.950000
    1756 A       1756       Ar      Ar      Ar      0.000000 39.950000
    1757 A       1757       Ar      Ar      Ar      0.000000 39.950000
    1758 A       1758       Ar      Ar      Ar      0.000000 39.950000
    1759 A       1759       Ar      Ar      Ar      0.000000 39.950000
    1760 A       1760       Ar      Ar      Ar      0.000000 39.950000
    1761 A       1761       Ar      Ar      Ar      0.000000 39.950000
    1762 A       1762       Ar      Ar      Ar      0.000000 39.950000
    1763 A       1763       Ar      Ar      Ar      0.000000 39.950000
    1764 A       1764       Ar      Ar      Ar      0.000000 39.950000
    1765 A       1765       Ar      Ar      Ar      0.000000 39.950000
    1766 A       1766       Ar      Ar      Ar      0.000000 39.950000
    1767 A       1767       Ar      Ar      Ar      0.000000 39.950000
    1768 A       1768       Ar      Ar      Ar      0.000000 39.950000
    1769 A       1769       Ar      Ar      Ar      0.000000 39.950000
    1770 A       1770       Ar      Ar      Ar      0.000000 39.950000
    1771 A       1771       Ar      Ar      Ar      0.000000 39.950000
    1772 A       1772       Ar      Ar      Ar      0.000000 39.950000
    1773 A       1773       Ar      Ar      Ar      0.000000 39.950000
    1774 A       1774       Ar      Ar      Ar      0.000000 39.950000
    1775 A       1775       Ar      Ar      Ar      0.000000 39.950000
    1776 A       1776       Ar      Ar      Ar      0.000000 39.950000
    1777 A       1777       Ar      Ar      Ar      0.000000 39.950000
    1778 A       1778       Ar      Ar      Ar      0.000000 39.950000
    1779 A       1779       Ar      Ar      Ar      0.000000 39.950000
    1780 A       1780       Ar      Ar      Ar      0.000000 39.950000
    1781 A       1781       Ar      Ar      Ar      0.000000 39.950000
    1782 A       1782       Ar      Ar      Ar      0.000000 39.950000
    1783 A       1783       Ar      Ar      Ar      0.000000 39.950000
    1784 A       1784       Ar      Ar      Ar      0.000000 39.950000
    1785 A       1785       Ar      Ar      Ar      0.000000 39.950000
    1786 A       1786       Ar      Ar      Ar      0.000000 39.950000
    1787 A       1787       Ar      Ar      Ar      0.000000 39.950000
    1788 A       1788       Ar      Ar      Ar      0.000000 39.950000
    1789 A       1789       Ar      Ar      Ar      0.000000 39.950000
    1790 A       1790       Ar      Ar      Ar      0.000000 39.950000
    1791 A       1791       Ar      Ar      Ar      0.000000 39.950000
    1792 A       1792       Ar      Ar      Ar      0.000000 39.950000
    1793 A       1793       Ar      Ar      Ar      0.000000 39.950000
    1794 A       1794       Ar      Ar      Ar      0.000000 39.950000
    1795 A       1795       Ar      Ar      Ar      0.000000 39.950000
    1796 A       1796       Ar      Ar      Ar      0.000000 39.950000
    1797 A       1797       Ar      Ar      Ar      0.000000 39.950000
    1798 A       1798       Ar      Ar      Ar      0.000000 39.950000
    1799 A       1799       Ar      Ar      Ar      0.000000 39.950000
    1800 A       1800       Ar      Ar      Ar      0.000000 39.950000
    1801 A       1801       Ar      Ar      Ar      0.000000 39.950000
    1802 A       1802       Ar      Ar      Ar      0.000000 39.950000
    1803 A       1803       Ar      Ar      Ar      0.000000 39.950000
    1804 A       1804       Ar      Ar      Ar      0.000000 39.950000
    1805 A       1805       Ar      Ar      Ar      0.000000 39.950000
    1806 A       1806       Ar      Ar      Ar      0.000000 39.950000
    1807 A       1807       Ar      Ar      Ar      0.000000 39.950000
    1808 A       1808       Ar      Ar      Ar      0.000000 39.950000
    1809 A       1809       Ar      Ar      Ar      0.000000 39.950000
    1810 A       1810       Ar      Ar      Ar      0.000000 39.950000
    1811 A       1811       Ar      Ar      Ar      0.000000 39.950000
    1812 A       1812       Ar      Ar      Ar      0.000000 39.950000
    1813 A       1813       Ar      Ar      Ar      0.000000 39.950000
    1814 A       1814       Ar      Ar      Ar      0.000000 39.950000
    1815 A       1815       Ar      Ar      Ar      0.000000 39.950000
    1816 A       1816       Ar      Ar      Ar      0.000000 39.950000
    1817 A       1817       Ar      Ar      Ar      0.000000 39.950000
    1818 A       1818       Ar      Ar      Ar      0.000000 39.950000
    1819 A       1819       Ar      Ar      Ar      0.000000 39.950000
    1820 A       1820       Ar      Ar      Ar      0.000000 39.950000
    1821 A       1821       Ar      Ar      Ar      0.000000 39.950000
    1822 A       1822       Ar      Ar      Ar      0.000000 39.950000
    1823 A       1823       Ar      Ar      Ar      0.000000 39.950000
    1824 A       1824       Ar      Ar      Ar      0.000000 39.950000
    1825 A       1825       Ar      Ar      Ar      0.000000 39.950000
    1826 A       1826       Ar      Ar      Ar      0.000000 39.950000
    1827 A       1827       Ar      Ar      Ar      0.000000 39.950000
    1828 A       1828       Ar      Ar      Ar      0.000000 39.950000
    1829 A       1829       Ar      Ar      Ar      0.000000 39.950000
    1830 A       1830       Ar      Ar      Ar      0.000000 39.950000
    1831 A       1831       Ar      Ar      Ar      0.000000 39.950000
    1832 A       1832       Ar      Ar      Ar      0.000000 39.950000
    1833 A       1833       Ar      Ar      Ar      0.000000 39.950000
    1834 A       1834       Ar      Ar      Ar      0.000000 39.950000
    1835 A       1835       Ar      Ar      Ar      0.000000 39.950000
    1836 A       1836       Ar      Ar      Ar      0.000000 39.950000
    1837 A       1837       Ar      Ar      Ar      0.000000 39.950000
    1838 A       1838       Ar      Ar      Ar      0.000000 39.950000
    1839 A       1839       Ar      Ar      Ar      0.000000 39.950000
    1840 A       1840       Ar      Ar      Ar      0.000000 39.950000
    1841 A       1841       Ar      Ar      Ar      0.000000 39.950000
    1842 A       1842       Ar      Ar      Ar      0.000000 39.950000
    1843 A       1843       Ar      Ar      Ar      0.000000 39.950000
    1844 A       1844       Ar      Ar      Ar      0.000000 39.950000
    1845 A       1845       Ar      Ar      Ar      0.000000 39.950000
    1846 A       1846       Ar      Ar      Ar      0.000000 39.950000
    1847 A       1847       Ar      Ar      Ar      0.000000 39.950000
    1848 A       1848       Ar      Ar      Ar      0.000000 39.950000
    1849 A       1849       Ar      Ar      Ar      0.000000 39.950000
    1850 A       1850       Ar      Ar      Ar      0.000000 39.950000
    1851 A       1851       Ar      Ar      Ar      0.000000 39.950000
    1852 A       1852       Ar      Ar      Ar      0.000000 39.950000
    1853 A       1853       Ar      Ar      Ar      0.000000 39.950000
    1854 A       1854       Ar      Ar      Ar      0.000000 39.950000
    1855 A       1855       Ar      Ar      Ar      0.000000 39.950000
    1856 A       1856       Ar      Ar      Ar      0.000000 39.950000
    1857 A       1857       Ar      Ar      Ar      0.000000 39.950000
    1858 A       1858       Ar      Ar      Ar      0.000000 39.950000
    1859 A       1859       Ar      Ar      Ar      0.000000 39.950000
    1860 A       1860       Ar      Ar      Ar      0.000000 39.950000
    1861 A       1861       Ar      Ar      Ar      0.000000 39.950000
    1862 A       1862       Ar      Ar      Ar      0.000000 39.950000
    1863 A       1863       Ar      Ar      Ar      0.000000 39.950000
    1864 A       1864       Ar      Ar      Ar      0.000000 39.950000
    1865 A       1865       Ar      Ar      Ar      0.000000 39.950000
    1866 A       1866       Ar      Ar      Ar      0.000000 39.950000
    1867 A       1867       Ar      Ar      Ar      0.000000 39.950000
    1868 A       1868       Ar      Ar      Ar      0.000000 39.950000
    1869 A       1869       Ar      Ar      Ar      0.000000 39.950000
    1870 A       1870       Ar      Ar      Ar      0.000000 39.950000
    1871 A       1871       Ar      Ar      Ar      0.000000 39.950000
    1872 A       1872       Ar      Ar      Ar      0.000000 39.950000
    1873 A       1873       Ar      Ar      Ar      0.000000 39.950000
    1874 A       1874       Ar      Ar      Ar      0.000000 39.950000
    1875 A       1875       Ar      Ar      Ar      0.000000 39.950000
    1876 A       1876       Ar      Ar      Ar      0.000000 39.950000
    1877 A       1877       Ar      Ar      Ar      0.000000 39.950000
    1878 A       1878       Ar      Ar      Ar      0.000000 39.950000
    1879 A       1879       Ar      Ar      Ar      0.000000 39.950000
    1880 A       1880       Ar      Ar      Ar      0.000000 39.950000
    1881 A       1881       Ar      Ar      Ar      0.000000 39.950000
    1882 A       1882       Ar      Ar      Ar      0.000000 39.950000
    1883 A       1883       Ar      Ar      Ar      0.000000 39.950000
    1884 A       1884       Ar      Ar      Ar      0.000000 39.950000
    1885 A       1885       Ar      Ar      Ar      0.000000 39.950000
    1886 A       1886       Ar      Ar      Ar      0.000000 39.950000
    1887 A       1887       Ar      Ar      Ar      0.000000 39.950000
    1888 A       1888       Ar      Ar      Ar      0.000000 39.950000
    1889 A       1889       Ar      Ar      Ar      0.000000 39.950000
    1890 A       1890       Ar      Ar      Ar      0.000000 39.950000
    1891 A       1891       Ar      Ar      Ar      0.000000 39.950000
    1892 A       1892       Ar      Ar      Ar      0.000000 39.950000
    1893 A       1893       Ar      Ar      Ar      0.000000 39.950000
    1894 A       1894       Ar      Ar      Ar      0.000000 39.950000
    1895 A       1895       Ar      Ar      Ar      0.000000 39.950000
    1896 A       1896       Ar      Ar      Ar      0.000000 39.950000
    1897 A       1897       Ar      Ar      Ar      0.000000 39.950000
    1898 A       1898       Ar      Ar      Ar      0.000000 39.950000
    1899 A       1899       Ar      Ar      Ar      0.000000 39.950000
    1900 A       1900       Ar      Ar      Ar      0.000000 39.950000
    1901 A       1901       Ar      Ar      Ar      0.000000 39.950000
    1902 A       1902       Ar      Ar      Ar      0.000000 39.950000
    1903 A       1903       Ar      Ar      Ar      0.000000 39.950000
    1904 A       1904       Ar      Ar      Ar      0.000000 39.950000
    1905 A       1905       Ar      Ar      Ar      0.000000 39.950000
    1906 A       1906       Ar      Ar      Ar      0.000000 39.950000
    1907 A       1907       Ar      Ar      Ar      0.000000 39.950000
    1908 A       1908       Ar      Ar      Ar      0.000000 39.950000
    1909 A       1909       Ar      Ar      Ar      0.000000 39.950000
    1910 A       1910       Ar      Ar      Ar      0.000000 39.950000
    1911 A       1911       Ar      Ar      Ar      0.000000 39.950000
    1912 A       1912       Ar      Ar      Ar      0.000000 39.950000
    1913 A       1913       Ar      Ar      Ar      0.000000 39.950000
    1914 A       1914       Ar      Ar      Ar      0.000000 39.950000
    1915 A       1915       Ar      Ar      Ar      0.000000 39.950000
    1916 A       1916       Ar      Ar      Ar      0.000000 39.950000
    1917 A       1917       Ar      Ar      Ar      0.000000 39.950000
    1918 A       1918       Ar      Ar      Ar      0.000000 39.950000
    1919 A       1919       Ar      Ar      Ar      0.000000 39.950000
    1920 A       1920       Ar      Ar      Ar      0.000000 39.950000
    1921 A       1921       Ar      Ar      Ar      0.000000 39.950000
    1922 A       1922       Ar      Ar      Ar      0.000000 39.950000
    1923 A       1923       Ar      Ar      Ar      0.000000 39.950000
    1924 A       1924       Ar      Ar      Ar      0.000000 39.950000
    1925 A       1925       Ar      Ar      Ar      0.000000 39.950000
    1926 A       1926       Ar      Ar      Ar      0.000000 39.950000
    1927 A       1927       Ar      Ar      Ar      0.000000 39.950000
    1928 A       1928       Ar      Ar      Ar      0.000000 39.950000
    1929 A       1929       Ar      Ar      Ar      0.000000 39.950000
    1930 A       1930       Ar      Ar      Ar      0.000000 39.950000
    1931 A       1931       Ar      Ar      Ar      0.000000 39.950000
    1932 A       1932       Ar      Ar      Ar      0.000000 39.950000
    1933 A       1933       Ar      Ar      Ar      0.000000 39.950000
    1934 A       1934       Ar      Ar      Ar      0.000000 39.950000
    1935 A       1935       Ar      Ar      Ar      0.000000 39.950000
    1936 A       1936       Ar      Ar      Ar      0.000000 39.950000
    1937 A       1937       Ar      Ar      Ar      0.000000 39.950000
    1938 A       1938       Ar      Ar      Ar      0.000000 39.950000
    1939 A       1939       Ar      Ar      Ar      0.000000 39.950000
    1940 A       1940       Ar      Ar      Ar      0.000000 39.950000
    1941 A       1941       Ar      Ar      Ar      0.000000 39.950000
    1942 A       1942       Ar      Ar      Ar      0.000000 39.950000
    1943 A       1943       Ar      Ar      Ar      0.000000 39.950000
    1944 A       1944       Ar      Ar      Ar      0.000000 39.950000
    1945 A       1945       Ar      Ar      Ar      0.000000 39.950000
    1946 A       1946       Ar      Ar      Ar      0.000000 39.950000
    1947 A       1947       Ar      Ar      Ar      0.000000 39.950000
    1948 A       1948       Ar      Ar      Ar      0.000000 39.950000
    1949 A       1949       Ar      Ar      Ar      0.000000 39.950000
    1950 A       1950       Ar      Ar      Ar      0.000000 39.950000
    1951 A       1951       Ar      Ar      Ar      0.000000 39.950000
    1952 A       1952       Ar      Ar      Ar      0.000000 39.950000
    1953 A       1953       Ar      Ar      Ar      0.000000 39.950000
    1954 A       1954       Ar      Ar      Ar      0.000000 39.950000
    1955 A       1955       Ar      Ar      Ar      0.000000 39.950000
    1956 A       1956       Ar      Ar      Ar      0.000000 39.950000
    1957 A       1957       Ar      Ar      Ar      0.000000 39.950000
    1958 A       1958       Ar      Ar      Ar      0.000000 39.950000
    1959 A       1959       Ar      Ar      Ar      0.000000 39.950000
    1960 A       1960       Ar      Ar      Ar      0.000000 39.950000
    1961 A       1961       Ar      Ar      Ar      0.000000 39.950000
    1962 A       1962       Ar      Ar      Ar      0.000000 39.950000
    1963 A       1963       Ar      Ar      Ar      0.000000 39.950000
    1964 A       1964       Ar      Ar      Ar      0.000000 39.950000
    1965 A       1965       Ar      Ar      Ar      0.000000 39.950000
    1966 A       1966       Ar      Ar      Ar      0.000000 39.950000
    1967 A       1967       Ar      Ar      Ar      0.000000 39.950000
    1968 A       1968       Ar      Ar      Ar      0.000000 39.950000
    1969 A       1969       Ar      Ar      Ar      0.000000 39.950000
    1970 A       1970       Ar      Ar      Ar      0.000000 39.950000
    1971 A       1971       Ar      Ar      Ar      0.000000 39.950000
    1972 A       1972       Ar      Ar      Ar      0.000000 39.950000
    1973 A       1973       Ar      Ar      Ar      0.000000 39.950000
    1974 A       1974       Ar      Ar      Ar      0.000000 39.950000
    1975 A       1975       Ar      Ar      Ar      0.000000 39.950000
    1976 A       1976       Ar      Ar      Ar      0.000000 39.950000
    1977 A       1977       Ar      Ar      Ar      0.000000 39.950000
    1978 A       1978       Ar      Ar      Ar      0.000000 39.950000
    1979 A       1979       Ar      Ar      Ar      0.000000 39.950000
    1980 A       1980       Ar      Ar      Ar      0.000000 39.950000
    1981 A       1981       Ar      Ar      Ar      0.000000 39.950000
    1982 A       1982       Ar      Ar      Ar      0.000000 39.950000
    1983 A       1983       Ar      Ar      Ar      0.000000 39.950000
    1984 A       1984       Ar      Ar      Ar      0.000000 39.950000
    1985 A       1985       Ar      Ar      Ar      0.000000 39.950000
    1986 A       1986       Ar      Ar      Ar      0.000000 39.950000
    1987 A       1987       Ar      Ar      Ar      0.000000 39.950000
    1988 A       1988       Ar      Ar      Ar      0.000000 39.950000
    1989 A       1989       Ar      Ar      Ar      0.000000 39.950000
    1990 A       1990       Ar      Ar      Ar      0.000000 39.950000
    1991 A       1991       Ar      Ar      Ar      0.000000 39.950000
    1992 A       1992       Ar      Ar      Ar      0.000000 39.950000
    1993 A       1993       Ar      Ar      Ar      0.000000 39.950000
    1994 A       1994       Ar      Ar      Ar      0.000000 39.950000
    1995 A       1995       Ar      Ar      Ar      0.000000 39.950000
    1996 A       1996       Ar      Ar      Ar      0.000000 39.950000
    1997 A       1997       Ar      Ar      Ar      0.000000 39.950000
    1998 A       1998       Ar      Ar      Ar      0.000000 39.950000
    1999 A       1999       Ar      Ar      Ar      0.000000 39.950000
    2000 A       2000       Ar      Ar      Ar      0.000000 39.950000
    2001 A       2001       Ar      Ar      Ar      0.000000 39.950000
    2002 A       2002       Ar      Ar      Ar      0.000000 39.950000
    2003 A       2003       Ar      Ar      Ar      0.000000 39.950000
    2004 A       2004       Ar      Ar      Ar      0.000000 39.950000
    2005 A       2005       Ar      Ar      Ar      0.000000 39.950000
    2006 A       2006       Ar      Ar      Ar      0.000000 39.950000
    2007 A       2007       Ar      Ar      Ar      0.000000 39.950000
    2008 A       2008       Ar      Ar      Ar      0.000000 39.950000
    2009 A       2009       Ar      Ar      Ar      0.000000 39.950000
    2010 A       2010       Ar      Ar      Ar      0.000000 39.950000
    2011 A       2011       Ar      Ar      Ar      0.000000 39.950000
    2012 A       2012       Ar      Ar      Ar      0.000000 39.950000
    2013 A       2013       Ar      Ar      Ar      0.000000 39.950000
    2014 A       2014       Ar      Ar      Ar      0.000000 39.950000
    2015 A       2015       Ar      Ar      Ar      0.000000 39.950000
    2016 A       2016       Ar      Ar      Ar      0.000000 39.950000
    2017 A       2017       Ar      Ar      Ar      0.000000 39.950000
    2018 A       2018       Ar      Ar      Ar      0.000000 39.950000
    2019 A       2019       Ar      Ar      Ar      0.000000 39.950000
    2020 A       2020       Ar      Ar      Ar      0.000000 39.950000
    2021 A       2021       Ar      Ar      Ar      0.000000 39.950000
    2022 A       2022       Ar      Ar      Ar      0.000000 39.950000
    2023 A       2023       Ar      Ar      Ar      0.000000 39.950000
    2024 A       2024       Ar      Ar      Ar      0.000000 39.950000
    2025 A       2025       Ar      Ar      Ar      0.000000 39.950000
    2026 A       2026       Ar      Ar      Ar      0.000000 39.950000
    2027 A       2027       Ar      Ar      Ar      0.000000 39.950000
    2028 A       2028       Ar      Ar      Ar      0.000000 39.950000
    2029 A       2029       Ar      Ar      Ar      0.000000 39.950000
    2030 A       2030       Ar      Ar      Ar      0.000000 39.950000
    2031 A       2031       Ar      Ar      Ar      0.000000 39.950000
    2032 A       2032       Ar      Ar      Ar      0.000000 39.950000
    2033 A       2033       Ar      Ar      Ar      0.000000 39.950000
    2034 A       2034       Ar      Ar      Ar      0.000000 39.950000
    2035 A       2035       Ar      Ar      Ar      0.000000 39.950000
    2036 A       2036       Ar      Ar      Ar      0.000000 39.950000
    2037 A       2037       Ar      Ar      Ar      0.000000 39.950000
    2038 A       2038       Ar      Ar      Ar      0.000000 39.950000
    2039 A       2039       Ar      Ar      Ar      0.000000 39.950000
    2040 A       2040       Ar      Ar      Ar      0.000000 39.950000
    2041 A       2041       Ar      Ar      Ar      0.000000 39.950000
    2042 A       2042       Ar      Ar      Ar      0.000000 39.950000
    2043 A       2043       Ar      Ar      Ar      0.000000 39.950000
    2044 A       2044       Ar      Ar      Ar      0.000000 39.950000
    2045 A       2045       Ar      Ar      Ar      0.000000 39.950000
    2046 A       2046       Ar      Ar      Ar      0.000000 39.950000
    2047 A       2047       Ar      Ar      Ar      0.000000 39.950000
    2048 A       2048       Ar      Ar      Ar      0.000000 39.950000
    2049 A       2049       Ar      Ar      Ar      0.000000 39.950000
    2050 A       2050       Ar      Ar      Ar      0.000000 39.950000
    2051 A       2051       Ar      Ar      Ar      0.000000 39.950000
    2052 A       2052       Ar      Ar      Ar      0.000000 39.950000
    2053 A       2053       Ar      Ar      Ar      0.000000 39.950000
    2054 A       2054       Ar      Ar      Ar      0.000000 39.950000
    2055 A       2055       Ar      Ar      Ar      0.000000 39.950000
    2056 A       2056       Ar      Ar      Ar      0.000000 39.950000
    2057 A       2057       Ar      Ar      Ar      0.000000 39.950000
    2058 A       2058       Ar      Ar      Ar      0.000000 39.950000
    2059 A       2059       Ar      Ar      Ar      0.000000 39.950000
    2060 A       2060       Ar      Ar      Ar      0.000000 39.950000
    2061 A       2061       Ar      Ar      Ar      0.000000 39.950000
    2062 A       2062       Ar      Ar      Ar      0.000000 39.950000
    2063 A       2063       Ar      Ar      Ar      0.000000 39.950000
    2064 A       2064       Ar      Ar      Ar      0.000000 39.950000
    2065 A       2065       Ar      Ar      Ar      0.000000 39.950000
    2066 A       2066       Ar      Ar      Ar      0.000000 39.950000
    2067 A       2067       Ar      Ar      Ar      0.000000 39.950000
    2068 A       2068       Ar      Ar      Ar      0.000000 39.950000
    2069 A       2069       Ar      Ar      Ar      0.000000 39.950000
    2070 A       2070       Ar      Ar      Ar      0.000000 39.950000
    2071 A       2071       Ar      Ar      Ar      0.000000 39.950000
    2072 A       2072       Ar      Ar      Ar      0.000000 39.950000
    2073 A       2073       Ar      Ar      Ar      0.000000 39.950000
    2074 A       2074       Ar      Ar      Ar      0.000000 39.950000
    2075 A       2075       Ar      Ar      Ar      0.000000 39.950000
    2076 A       2076       Ar      Ar      Ar      0.000000 39.950000
    2077 A       2077       Ar      Ar      Ar      0.000000 39.950000
    2078 A       2078       Ar      Ar      Ar      0.000000 39.950000
    2079 A       2079       Ar      Ar      Ar      0.000000 39.950000
    2080 A       2080       Ar      Ar      Ar      0.000000 39.950000
    2081 A       2081       Ar      Ar      Ar      0.000000 39.950000
    2082 A       2082       Ar      Ar      Ar      0.000000 39.950000
    2083 A       2083       Ar      Ar      Ar      0.000000 39.950000
    2084 A       2084       Ar      Ar      Ar      0.000000 39.950000
    2085 A       2085       Ar      Ar      Ar      0.000000 39.950000
    2086 A       2086       Ar      Ar      Ar      0.000000 39.950000
    2087 A       2087       Ar      Ar      Ar      0.000000 39.950000
    2088 A       2088       Ar      Ar      Ar      0.000000 39.950000
    2089 A       2089       Ar      Ar      Ar      0.000000 39.950000
    2090 A       2090       Ar      Ar      Ar      0.000000 39.950000
    2091 A       2091       Ar      Ar      Ar      0.000000 39.950000
    2092 A       2092       Ar      Ar      Ar      0.000000 39.950000
    2093 A       2093       Ar      Ar      Ar      0.000000 39.950000
    2094 A       2094       Ar      Ar      Ar      0.000000 39.950000
    2095 A       2095       Ar      Ar      Ar      0.000000 39.950000
    2096 A       2096       Ar      Ar      Ar      0.000000 39.950000
    2097 A       2097       Ar      Ar      Ar      0.000000 39.950000
    2098 A       2098       Ar      Ar      Ar      0.000000 39.950000
    2099 A       2099       Ar      Ar      Ar      0.000000 39.950000
    2100 A       2100       Ar      Ar      Ar      0.000000 39.950000
    2101 A       2101       Ar      Ar      Ar      0.000000 39.950000
    2102 A       2102       Ar      Ar      Ar      0.000000 39.950000
    2103 A       2103       Ar      Ar      Ar      0.000000 39.950000
    2104 A       2104       Ar      Ar      Ar      0.000000 39.950000
    2105 A       2105       Ar      Ar      Ar      0.000000 39.950000
    2106 A       2106       Ar      Ar      Ar      0.000000 39.950000
    2107 A       2107       Ar      Ar      Ar      0.000000 39.950000
    2108 A       2108       Ar      Ar      Ar      0.000000 39.950000
    2109 A       2109       Ar      Ar      Ar      0.000000 39.950000
    2110 A       2110       Ar      Ar      Ar      0.000000 39.950000
    2111 A       2111       Ar      Ar      Ar      0.000000 39.950000
    2112 A       2112       Ar      Ar      Ar      0.000000 39.950000
    2113 A       2113       Ar      Ar      Ar      0.000000 39.950000
    2114 A       2114       Ar      Ar      Ar      0.000000 39.950000
    2115 A       2115       Ar      Ar      Ar      0.000000 39.950000
    2116 A       2116       Ar      Ar      Ar      0.000000 39.950000
    2117 A       2117       Ar      Ar      Ar      0.000000 39.950000
    2118 A       2118       Ar      Ar      Ar      0.000000 39.950000
    2119 A       2119       Ar      Ar      Ar      0.000000 39.950000
    2120 A       2120       Ar      Ar      Ar      0.000000 39.950000
    2121 A       2121       Ar      Ar      Ar      0.000000 39.950000
    2122 A       2122       Ar      Ar      Ar      0.000000 39.950000
    2123 A       2123       Ar      Ar      Ar      0.000000 39.950000
    2124 A       2124       Ar      Ar      Ar      0.000000 39.950000
    2125 A       2125       Ar      Ar      Ar      0.000000 39.950000
    2126 A       2126       Ar      Ar      Ar      0.000000 39.950000
    2127 A       2127       Ar      Ar      Ar      0.000000 39.950000
    2128 A       2128       Ar      Ar      Ar      0.000000 39.950000
    2129 A       2129       Ar      Ar      Ar      0.000000 39.950000
    2130 A       2130       Ar      Ar      Ar      0.000000 39.950000
    2131 A       2131       Ar      Ar      Ar      0.000000 39.950000
    2132 A       2132       Ar      Ar      Ar      0.000000 39.950000
    2133 A       2133       Ar      Ar      Ar      0.000000 39.950000
    2134 A       2134       Ar      Ar      Ar      0.000000 39.950000
    2135 A       2135       Ar      Ar      Ar      0.000000 39.950000
    2136 A       2136       Ar      Ar      Ar      0.000000 39.950000
    2137 A       2137       Ar      Ar      Ar      0.000000 39.950000
    2138 A       2138       Ar      Ar      Ar      0.000000 39.950000
    2139 A       2139       Ar      Ar      Ar      0.000000 39.950000
    2140 A       2140       Ar      Ar      Ar      0.000000 39.950000
    2141 A       2141       Ar      Ar      Ar      0.000000 39.950000
    2142 A       2142       Ar      Ar      Ar      0.000000 39.950000
    2143 A       2143       Ar      Ar      Ar      0.000000 39.950000
    2144 A       2144       Ar      Ar      Ar      0.000000 39.950000
    2145 A       2145       Ar      Ar      Ar      0.000000 39.950000
    2146 A       2146       Ar      Ar      Ar      0.000000 39.950000
    2147 A       2147       Ar      Ar      Ar      0.000000 39.950000
    2148 A       2148       Ar      Ar      Ar      0.000000 39.950000
    2149 A       2149       Ar      Ar      Ar      0.000000 39.950000
    2150 A       2150       Ar      Ar      Ar      0.000000 39.950000
    2151 A       2151       Ar      Ar      Ar      0.000000 39.950000
    2152 A       2152       Ar      Ar      Ar      0.000000 39.950000
    2153 A       2153       Ar      Ar      Ar      0.000000 39.950000
    2154 A       2154       Ar      Ar      Ar      0.000000 39.950000
    2155 A       2155       Ar      Ar      Ar      0.000000 39.950000
    2156 A       2156       Ar      Ar      Ar      0.000000 39.950000
    2157 A       2157       Ar      Ar      Ar      0.000000 39.950000
    2158 A       2158       Ar      Ar      Ar      0.000000 39.950000
    2159 A       2159       Ar      Ar      Ar      0.000000 39.950000
    2160 A       2160       Ar      Ar      Ar      0.000000 39.950000
    2161 A       2161       Ar      Ar      Ar      0.000000 39.950000
    2162 A       2162       Ar      Ar      Ar      0.000000 39.950000
    2163 A       2163       Ar      Ar      Ar      0.000000 39.950000
    2164 A       2164       Ar      Ar      Ar      0.000000 39.950000
    2165 A       2165       Ar      Ar      Ar      0.000000 39.950000
    2166 A       2166       Ar      Ar      Ar      0.000000 39.950000
    2167 A       2167       Ar      Ar      Ar      0.000000 39.950000
    2168 A       2168       Ar      Ar      Ar      0.000000 39.950000
    2169 A       2169       Ar      Ar      Ar      0.000000 39.950000
    2170 A       2170       Ar      Ar      Ar      0.000000 39.950000
    2171 A       2171       Ar      Ar      Ar      0.000000 39.950000
    2172 A       2172       Ar      Ar      Ar      0.000000 39.950000
    2173 A       2173       Ar      Ar      Ar      0.000000 39.950000
    2174 A       2174       Ar      Ar      Ar      0.000000 39.950000
    2175 A       2175       Ar      Ar      Ar      0.000000 39.950000
    2176 A       2176       Ar      Ar      Ar      0.000000 39.950000
    2177 A       2177       Ar      Ar      Ar      0.000000 39.950000
    2178 A       2178       Ar      Ar      Ar      0.000000 39.950000
    2179 A       2179       Ar      Ar      Ar      0.000000 39.950000
    2180 A       2180       Ar      Ar      Ar      0.000000 39.950000
    2181 A       2181       Ar      Ar      Ar      0.000000 39.950000
    2182 A       2182       Ar      Ar      Ar      0.000000 39.950000
    2183 A       2183       Ar      Ar      Ar      0.000000 39.950000
    2184 A       2184       Ar      Ar      Ar      0.000000 39.950000
    2185 A       2185       Ar      Ar      Ar      0.000000 39.950000
    2186 A       2186       Ar      Ar      Ar      0.000000 39.950000
    2187 A       2187       Ar      Ar      Ar      0.000000 39.950000
    2188 A       2188       Ar      Ar      Ar      0.000000 39.950000
    2189 A       2189       Ar      Ar      Ar      0.000000 39.950000
    2190 A       2190       Ar      Ar      Ar      0.000000 39.950000
    2191 A       2191       Ar      Ar      Ar      0.000000 39.950000
    2192 A       2192       Ar      Ar      Ar      0.000000 39.950000
    2193 A       2193       Ar      Ar      Ar      0.000000 39.950000
    2194 A       2194       Ar      Ar      Ar      0.000000 39.950000
    2195 A       2195       Ar      Ar      Ar      0.000000 39.950000
    2196 A       2196       Ar      Ar      Ar      0.000000 39.950000
    2197 A       2197       Ar      Ar      Ar      0.000000 39.950000
    2198 A       2198       Ar      Ar      Ar      0.000000 39.950000
    2199 A       2199       Ar      Ar      Ar      0.000000 39.950000
    2200 A       2200       Ar      Ar      Ar      0.000000 39.950000
    2201 A       2201       Ar      Ar      Ar      0.000000 39.950000
    2202 A       2202       Ar      Ar      Ar      0.000000 39.950000
    2203 A       2203       Ar      Ar      Ar      0.000000 39.950000
    2204 A       2204       Ar      Ar      Ar      0.000000 39.950000
    2205 A       2205       Ar      Ar      Ar      0.000000 39.950000
    2206 A       2206       Ar      Ar      Ar      0.000000 39.950000
    2207 A       2207       Ar      Ar      Ar      0.000000 39.950000
    2208 A       2208       Ar      Ar      Ar      0.000000 39.950000
    2209 A       2209       Ar      Ar      Ar      0.000000 39.950000
    2210 A       2210       Ar      Ar      Ar      0.000000 39.950000
    2211 A       2211       Ar      Ar      Ar      0.000000 39.950000
    2212 A       2212       Ar      Ar      Ar      0.000000 39.950000
    2213 A       2213       Ar      Ar      Ar      0.000000 39.950000
    2214 A       2214       Ar      Ar      Ar      0.000000 39.950000
    2215 A       2215       Ar      Ar      Ar      0.000000 39.950000
    2216 A       2216       Ar      Ar      Ar      0.000000 39.950000
    2217 A       2217       Ar      Ar      Ar      0.000000 39.950000
    2218 A       2218       Ar      Ar      Ar      0.000000 39.950000
    2219 A       2219       Ar      Ar      Ar      0.000000 39.950000
    2220 A       2220       Ar      Ar      Ar      0.000000 39.950000
    2221 A       2221       Ar      Ar      Ar      0.000000 39.950000
    2222 A       2222       Ar      Ar      Ar      0.000000 39.950000
    2223 A       2223       Ar      Ar      Ar      0.000000 39.950000
    2224 A       2224       Ar      Ar      Ar      0.000000 39.950000
    2225 A       2225       Ar      Ar      Ar      0.000000 39.950000
    2226 A       2226       Ar      Ar      Ar      0.000000 39.950000
    2227 A       2227       Ar      Ar      Ar      0.000000 39.950000
    2228 A       2228       Ar      Ar      Ar      0.000000 39.950000
    2229 A       2229       Ar      Ar      Ar      0.000000 39.950000
    2230 A       2230       Ar      Ar      Ar      0.000000 39.950000
    2231 A       2231       Ar      Ar      Ar      0.000000 39.950000
    2232 A       2232       Ar      Ar      Ar      0.000000 39.950000
    2233 A       2233       Ar      Ar      Ar      0.000000 39.950000
    2234 A       2234       Ar      Ar      Ar      0.000000 39.950000
    2235 A       2235       Ar      Ar      Ar      0.000000 39.950000
    2236 A       2236       Ar      Ar      Ar      0.000000 39.950000
    2237 A       2237       Ar      Ar      Ar      0.000000 39.950000
    2238 A       2238       Ar      Ar      Ar      0.000000 39.950000
    2239 A       2239       Ar      Ar      Ar      0.000000 39.950000
    2240 A       2240       Ar      Ar      Ar      0.000000 39.950000
    2241 A       2241       Ar      Ar      Ar      0.000000 39.950000
    2242 A       2242       Ar      Ar      Ar      0.000000 39.950000
    2243 A       2243       Ar      Ar      Ar      0.000000 39.950000
    2244 A       2244       Ar      Ar      Ar      0.000000 39.950000
    2245 A       2245       Ar      Ar      Ar      0.000000 39.950000
    2246 A       2246       Ar      Ar      Ar      0.000000 39.950000
    2247 A       2247       Ar      Ar      Ar      0.000000 39.950000
    2248 A       2248       Ar      Ar      Ar      0.000000 39.950000
    2249 A       2249       Ar      Ar      Ar      0.000000 39.950000
    2250 A       2250       Ar      Ar      Ar      0.000000 39.950000
    2251 A       2251       Ar      Ar      Ar      0.000000 39.950000
    2252 A       2252       Ar      Ar      Ar      0.000000 39.950000
    2253 A       2253       Ar      Ar      Ar      0.000000 39.950000
    2254 A       2254       Ar      Ar      Ar      0.000000 39.950000
    2255 A       2255       Ar      Ar      Ar      0.000000 39.950000
    2256 A       2256       Ar      Ar      Ar      0.000000 39.950000
    2257 A       2257       Ar      Ar      Ar      0.000000 39.950000
    2258 A       2258       Ar      Ar      Ar      0.000000 39.950000
    2259 A       2259       Ar      Ar      Ar      0.000000 39.950000
    2260 A       2260       Ar      Ar      Ar      0.000000 39.950000
    2261 A       2261       Ar      Ar      Ar      0.000000 39.950000
    2262 A       2262       Ar      Ar      Ar      0.000000 39.950000
    2263 A       2263       Ar      Ar      Ar      0.000000 39.950000
    2264 A       2264       Ar      Ar      Ar      0.000000 39.950000
    2265 A       2265       Ar      Ar      Ar      0.000000 39.950000
    2266 A       2266       Ar      Ar      Ar      0.000000 39.950000
    2267 A       2267       Ar      Ar      Ar      0.000000 39.950000
    2268 A       2268       Ar      Ar      Ar      0.000000 39.950000
    2269 A       2269       Ar      Ar      Ar      0.000000 39.950000
    2270 A       2270       Ar      Ar      Ar      0.000000 39.950000
    2271 A       2271       Ar      Ar      Ar      0.000000 39.950000
    2272 A       2272       Ar      Ar      Ar      0.000000 39.950000
    2273 A       2273       Ar      Ar      Ar      0.000000 39.950000
    2274 A       2274       Ar      Ar      Ar      0.000000 39.950000
    2275 A       2275       Ar      Ar      Ar      0.000000 39.950000
    2276 A       2276       Ar      Ar      Ar      0.000000 39.950000
    2277 A       2277       Ar      Ar      Ar      0.000000 39.950000
    2278 A       2278       Ar      Ar      Ar      0.000000 39.950000
    2279 A       2279       Ar      Ar      Ar      0.000000 39.950000
    2280 A       2280       Ar      Ar      Ar      0.000000 39.950000
    2281 A       2281       Ar      Ar      Ar      0.000000 39.950000
    2282 A       2282       Ar      Ar      Ar      0.000000 39.950000
    2283 A       2283       Ar      Ar      Ar      0.000000 39.950000
    2284 A       2284       Ar      Ar      Ar      0.000000 39.950000
    2285 A       2285       Ar      Ar      Ar      0.000000 39.950000
    2286 A       2286       Ar      Ar      Ar      0.000000 39.950000
    2287 A       2287       Ar      Ar      Ar      0.000000 39.950000
    2288 A       2288       Ar      Ar      Ar      0.000000 39.950000
    2289 A       2289       Ar      Ar      Ar      0.000000 39.950000
    2290 A       2290       Ar      Ar      Ar      0.000000 39.950000
    2291 A       2291       Ar      Ar      Ar      0.000000 39.950000
    2292 A       2292       Ar      Ar      Ar      0.000000 39.950000
    2293 A       2293       Ar      Ar      Ar      0.000000 39.950000
    2294 A       2294       Ar      Ar      Ar      0.000000 39.950000
    2295 A       2295       Ar      Ar      Ar      0.000000 39.950000
    2296 A       2296       Ar      Ar      Ar      0.000000 39.950000
    2297 A       2297       Ar      Ar      Ar      0.000000 39.950000
    2298 A       2298       Ar      Ar      Ar      0.000000 39.950000
    2299 A       2299       Ar      Ar      Ar      0.000000 39.950000
    2300 A       2300       Ar      Ar      Ar      0.000000 39.950000
    2301 A       2301       Ar      Ar      Ar      0.000000 39.950000
    2302 A       2302       Ar      Ar      Ar      0.000000 39.950000
    2303 A       2303       Ar      Ar      Ar      0.000000 39.950000
    2304 A       2304       Ar      Ar      Ar      0.000000 39.950000
    2305 A       2305       Ar      Ar      Ar      0.000000 39.950000
    2306 A       2306       Ar      Ar      Ar      0.000000 39.950000
    2307 A       2307       Ar      Ar      Ar      0.000000 39.950000
    2308 A       2308       Ar      Ar      Ar      0.000000 39.950000
    2309 A       2309       Ar      Ar      Ar      0.000000 39.950000
    2310 A       2310       Ar      Ar      Ar      0.000000 39.950000
    2311 A       2311       Ar      Ar      Ar      0.000000 39.950000
    2312 A       2312       Ar      Ar      Ar      0.000000 39.950000
    2313 A       2313       Ar      Ar      Ar      0.000000 39.950000
    2314 A       2314       Ar      Ar      Ar      0.000000 39.950000
    2315 A       2315       Ar      Ar      Ar      0.000000 39.950000
    2316 A       2316       Ar      Ar      Ar      0.000000 39.950000
    2317 A       2317       Ar      Ar      Ar      0.000000 39.950000
    2318 A       2318       Ar      Ar      Ar      0.000000 39.950000
    2319 A       2319       Ar      Ar      Ar      0.000000 39.950000
    2320 A       2320       Ar      Ar      Ar      0.000000 39.950000
    2321 A       2321       Ar      Ar      Ar      0.000000 39.950000
    2322 A       2322       Ar      Ar      Ar      0.000000 39.950000
    2323 A       2323       Ar      Ar      Ar      0.000000 39.950000
    2324 A       2324       Ar      Ar      Ar      0.000000 39.950000
    2325 A       2325       Ar      Ar      Ar      0.000000 39.950000
    2326 A       2326       Ar      Ar      Ar      0.000000 39.950000
    2327 A       2327       Ar      Ar      Ar      0.000000 39.950000
    2328 A       2328       Ar      Ar      Ar      0.000000 39.950000
    2329 A       2329       Ar      Ar      Ar      0.000000 39.950000
    2330 A       2330       Ar      Ar      Ar      0.000000 39.950000
    2331 A       2331       Ar      Ar      Ar      0.000000 39.950000
    2332 A       2332       Ar      Ar      Ar      0.000000 39.950000
    2333 A       2333       Ar      Ar      Ar      0.000000 39.950000
    2334 A       2334       Ar      Ar      Ar      0.000000 39.950000
    2335 A       2335       Ar      Ar      Ar      0.000000 39.950000
    2336 A       2336       Ar      Ar      Ar      0.000000 39.950000
    2337 A       2337       Ar      Ar      Ar      0.000000 39.950000
    2338 A       2338       Ar      Ar      Ar      0.000000 39.950000
    2339 A       2339       Ar      Ar      Ar      0.000000 39.950000
    2340 A       2340       Ar      Ar      Ar      0.000000 39.950000
    2341 A       2341       Ar      Ar      Ar      0.000000 39.950000
    2342 A       2342       Ar      Ar      Ar      0.000000 39.950000
    2343 A       2343       Ar      Ar      Ar      0.000000 39.950000
    2344 A       2344       Ar      Ar      Ar      0.000000 39.950000
    2345 A       2345       Ar      Ar      Ar      0.000000 39.950000
    2346 A       2346       Ar      Ar      Ar      0.000000 39.950000
    2347 A       2347       Ar      Ar      Ar      0.000000 39.950000
    2348 A       2348       Ar      Ar      Ar      0.000000 39.950000
    2349 A       2349       Ar      Ar      Ar      0.000000 39.950000
    2350 A       2350       Ar      Ar      Ar      0.000000 39.950000
    2351 A       2351       Ar      Ar      Ar      0.000000 39.950000
    2352 A       2352       Ar      Ar      Ar      0.000000 39.950000
    2353 A       2353       Ar      Ar      Ar      0.000000 39.950000
    2354 A       2354       Ar      Ar      Ar      0.000000 39.950000
    2355 A       2355       Ar      Ar      Ar      0.000000 39.950000
    2356 A       2356       Ar      Ar      Ar      0.000000 39.950000
    2357 A       2357       Ar      Ar      Ar      0.000000 39.950000
    2358 A       2358       Ar      Ar      Ar      0.000000 39.950000
    2359 A       2359       Ar      Ar      Ar      0.000000 39.950000
    2360 A       2360       Ar      Ar      Ar      0.000000 39.950000
    2361 A       2361       Ar      Ar      Ar      0.000000 39.950000
    2362 A       2362       Ar      Ar      Ar      0.000000 39.950000
    2363 A       2363       Ar      Ar      Ar      0.000000 39.950000
    2364 A       2364       Ar      Ar      Ar      0.000000 39.950000
    2365 A       2365       Ar      Ar      Ar      0.000000 39.950000
    2366 A       2366       Ar      Ar      Ar      0.000000 39.950000
    2367 A       2367       Ar      Ar      Ar      0.000000 39.950000
    2368 A       2368       Ar      Ar      Ar      0.000000 39.950000
    2369 A       2369       Ar      Ar      Ar      0.000000 39.950000
    2370 A       2370       Ar      Ar      Ar      0.000000 39.950000
    2371 A       2371       Ar      Ar      Ar      0.000000 39.950000
    2372 A       2372       Ar      Ar      Ar      0.000000 39.950000
    2373 A       2373       Ar      Ar      Ar      0.000000 39.950000
    2374 A       2374       Ar      Ar      Ar      0.000000 39.950000
    2375 A       2375       Ar      Ar      Ar      0.000000 39.950000
    2376 A       2376       Ar      Ar      Ar      0.000000 39.950000
    2377 A       2377       Ar      Ar      Ar      0.000000 39.950000
    2378 A       2378       Ar      Ar      Ar      0.000000 39.950000
    2379 A       2379       Ar      Ar      Ar      0.000000 39.950000
    2380 A       2380       Ar      Ar      Ar      0.000000 39.950000
    2381 A       2381       Ar      Ar      Ar      0.000000 39.950000
    2382 A       2382       Ar      Ar      Ar      0.000000 39.950000
    2383 A       2383       Ar      Ar      Ar      0.000000 39.950000
    2384 A       2384       Ar      Ar      Ar      0.000000 39.950000
    2385 A       2385       Ar      Ar      Ar      0.000000 39.950000
    2386 A       2386       Ar      Ar      Ar      0.000000 39.950000
    2387 A       2387       Ar      Ar      Ar      0.000000 39.950000
    2388 A       2388       Ar      Ar      Ar      0.000000 39.950000
    2389 A       2389       Ar      Ar      Ar      0.000000 39.950000
    2390 A       2390       Ar      Ar      Ar      0.000000 39.950000
    2391 A       2391       Ar      Ar      Ar      0.000000 39.950000
    2392 A       2392       Ar      Ar      Ar      0.000000 39.950000
    2393 A       2393       Ar      Ar      Ar      0.000000 39.950000
    2394 A       2394       Ar      Ar      Ar      0.000000 39.950000
    2395 A       2395       Ar      Ar      Ar      0.000000 39.950000
    2396 A       2396       Ar      Ar      Ar      0.000000 39.950000
    2397 A       2397       Ar      Ar      Ar      0.000000 39.950000
    2398 A       2398       Ar      Ar      Ar      0.000000 39.950000
    2399 A       2399       Ar      Ar      Ar      0.000000 39.950000
    2400 A       2400       Ar      Ar      Ar      0.000000 39.950000
    2401 A       2401       Ar      Ar      Ar      0.000000 39.950000
    2402 A       2402       Ar      Ar      Ar      0.000000 39.950000
    2403 A       2403       Ar      Ar      Ar      0.000000 39.950000
    2404 A       2404       Ar      Ar      Ar      0.000000 39.950000
    2405 A       2405       Ar      Ar      Ar      0.000000 39.950000
    2406 A       2406       Ar      Ar      Ar      0.000000 39.950000
    2407 A       2407       Ar      Ar      Ar      0.000000 39.950000
    2408 A       2408       Ar      Ar      Ar      0.000000 39.950000
    2409 A       2409       Ar      Ar      Ar      0.000000 39.950000
    2410 A       2410       Ar      Ar      Ar      0.000000 39.950000
    2411 A       2411       Ar      Ar      Ar      0.000000 39.950000
    2412 A       2412       Ar      Ar      Ar      0.000000 39.950000
    2413 A       2413       Ar      Ar      Ar      0.000000 39.950000
    2414 A       2414       Ar      Ar      Ar      0.000000 39.950000
    2415 A       2415       Ar      Ar      Ar      0.000000 39.950000
    2416 A       2416       Ar      Ar      Ar      0.000000 39.950000
    2417 A       2417       Ar      Ar      Ar      0.000000 39.950000
    2418 A       2418       Ar      Ar      Ar      0.000000 39.950000
    2419 A       2419       Ar      Ar      Ar      0.000000 39.950000
    2420 A       2420       Ar      Ar      Ar      0.000000 39.950000
    2421 A       2421       Ar      Ar      Ar      0.000000 39.950000
    2422 A       2422       Ar      Ar      Ar      0.000000 39.950000
    2423 A       2423       Ar      Ar      Ar      0.000000 39.950000
    2424 A       2424       Ar      Ar      Ar      0.000000 39.950000
    2425 A       2425       Ar      Ar      Ar      0.000000 39.950000
    2426 A       2426       Ar      Ar      Ar      0.000000 39.950000
    2427 A       2427       Ar      Ar      Ar      0.000000 39.950000
    2428 A       2428       Ar      Ar      Ar      0.000000 39.950000
    2429 A       2429       Ar      Ar      Ar      0.000000 39.950000
    2430 A       2430       Ar      Ar      Ar      0.000000 39.950000
    2431 A       2431       Ar      Ar      Ar      0.000000 39.950000
    2432 A       2432       Ar      Ar      Ar      0.000000 39.950000
    2433 A       2433       Ar      Ar      Ar      0.000000 39.950000
    2434 A       2434       Ar      Ar      Ar      0.000000 39.950000
    2435 A       2435       Ar      Ar      Ar      0.000000 39.950000
    2436 A       2436       Ar      Ar      Ar      0.000000 39.950000
    2437 A       2437       Ar      Ar      Ar      0.000000 39.950000
    2438 A       2438       Ar      Ar      Ar      0.000000 39.950000
    2439 A       2439       Ar      Ar      Ar      0.000000 39.950000
    2440 A       2440       Ar      Ar      Ar      0.000000 39.950000
    2441 A       2441       Ar      Ar      Ar      0.000000 39.950000
    2442 A       2442       Ar      Ar      Ar      0.000000 39.950000
    2443 A       2443       Ar      Ar      Ar      0.000000 39.950000
    2444 A       2444       Ar      Ar      Ar      0.000000 39.950000
    2445 A       2445       Ar      Ar      Ar      0.000000 39.950000
    2446 A       2446       Ar      Ar      Ar      0.000000 39.950000
    2447 A       2447       Ar      Ar      Ar      0.000000 39.950000
    2448 A       2448       Ar      Ar      Ar      0.000000 39.950000
    2449 A       2449       Ar      Ar      Ar      0.000000 39.950000
    2450 A       2450       Ar      Ar      Ar      0.000000 39.950000
    2451 A       2451       Ar      Ar      Ar      0.000000 39.950000
    2452 A       2452       Ar      Ar      Ar      0.000000 39.950000
    2453 A       2453       Ar      Ar      Ar      0.000000 39.950000
    2454 A       2454       Ar      Ar      Ar      0.000000 39.950000
    2455 A       2455       Ar      Ar      Ar      0.000000 39.950000
    2456 A       2456       Ar      Ar      Ar      0.000000 39.950000
    2457 A       2457       Ar      Ar      Ar      0.000000 39.950000
    2458 A       2458       Ar      Ar      Ar      0.000000 39.950000
    2459 A       2459       Ar      Ar      Ar      0.000000 39.950000
    2460 A       2460       Ar      Ar      Ar      0.000000 39.950000
    2461 A       2461       Ar      Ar      Ar      0.000000 39.950000
    2462 A       2462       Ar      Ar      Ar      0.000000 39.950000
    2463 A       2463       Ar      Ar      Ar      0.000000 39.950000
    2464 A       2464       Ar      Ar      Ar      0.000000 39.950000
    2465 A       2465       Ar      Ar      Ar      0.000000 39.950000
    2466 A       2466       Ar      Ar      Ar      0.000000 39.950000
    2467 A       2467       Ar      Ar      Ar      0.000000 39.950000
    2468 A       2468       Ar      Ar      Ar      0.000000 39.950000
    2469 A       2469       Ar      Ar      Ar      0.000000 39.950000
    2470 A       2470       Ar      Ar      Ar      0.000000 39.950000
    2471 A       2471       Ar      Ar      Ar      0.000000 39.950000
    2472 A       2472       Ar      Ar      Ar      0.000000 39.950000
    2473 A       2473       Ar      Ar      Ar      0.000000 39.950000
    2474 A       2474       Ar      Ar      Ar      0.000000 39.950000
    2475 A       2475       Ar      Ar      Ar      0.000000 39.950000
    2476 A       2476       Ar      Ar      Ar      0.000000 39.950000
    2477 A       2477       Ar      Ar      Ar      0.000000 39.950000
    2478 A       2478       Ar      Ar      Ar      0.000000 39.950000
    2479 A       2479       Ar      Ar      Ar      0.000000 39.950000
    2480 A       2480       Ar      Ar      Ar      0.000000 39.950000
    2481 A       2481       Ar      Ar      Ar      0.000000 39.950000
    2482 A       2482       Ar      Ar      Ar      0.000000 39.950000
    2483 A       2483       Ar      Ar      Ar      0.000000 39.950000
    2484 A       2484       Ar      Ar      Ar      0.000000 39.950000
    2485 A       2485       Ar      Ar      Ar      0.000000 39.950000
    2486 A       2486       Ar      Ar      Ar      0.000000 39.950000
    2487 A       2487       Ar      Ar      Ar      0.000000 39.950000
    2488 A       2488       Ar      Ar      Ar      0.000000 39.950000
    2489 A       2489       Ar      Ar      Ar      0.000000 39.950000
    2490 A       2490       Ar      Ar      Ar      0.000000 39.950000
    2491 A       2491       Ar      Ar      Ar      0.000000 39.950000
    2492 A       2492       Ar      Ar      Ar      0.000000 39.950000
    2493 A       2493       Ar      Ar      Ar      0.000000 39.950000
    2494 A       2494       Ar      Ar      Ar      0.000000 39.950000
    2495 A       2495       Ar      Ar      Ar      0.000000 39.950000
    2496 A       2496       Ar      Ar      Ar      0.000000 39.950000
    2497 A       2497       Ar      Ar      Ar      0.000000 39.950000
    2498 A       2498       Ar      Ar      Ar      0.000000 39.950000
    2499 A       2499       Ar      Ar      Ar      0.000000 39.950000
    2500 A       2500       Ar      Ar      Ar      0.000000 39.950000
    2501 A       2501       Ar      Ar      Ar      0.000000 39.950000
    2502 A       2502       Ar      Ar      Ar      0.000000 39.950000
    2503 A       2503       Ar      Ar      Ar      0.000000 39.950000
    2504 A       2504       Ar      Ar      Ar      0.000000 39.950000
    2505 A       2505       Ar      Ar      Ar      0.000000 39.950000
    2506 A       2506       Ar      Ar      Ar      0.000000 39.950000
    2507 A       2507       Ar      Ar      Ar      0.000000 39.950000
    2508 A       2508       Ar      Ar      Ar      0.000000 39.950000
    2509 A       2509       Ar      Ar      Ar      0.000000 39.950000
    2510 A       2510       Ar      Ar      Ar      0.000000 39.950000
    2511 A       2511       Ar      Ar      Ar      0.000000 39.950000
    2512 A       2512       Ar      Ar      Ar      0.000000 39.950000
    2513 A       2513       Ar      Ar      Ar      0.000000 39.950000
    2514 A       2514       Ar      Ar      Ar      0.000000 39.950000
    2515 A       2515       Ar      Ar      Ar      0.000000 39.950000
    2516 A       2516       Ar      Ar      Ar      0.000000 39.950000
    2517 A       2517       Ar      Ar      Ar      0.000000 39.950000
    2518 A       2518       Ar      Ar      Ar      0.000000 39.950000
    2519 A       2519       Ar      Ar      Ar      0.000000 39.950000
    2520 A       2520       Ar      Ar      Ar      0.000000 39.950000
    2521 A       2521       Ar      Ar      Ar      0.000000 39.950000
    2522 A       2522       Ar      Ar      Ar      0.000000 39.950000
    2523 A       2523       Ar      Ar      Ar      0.000000 39.950000
    2524 A       2524       Ar      Ar      Ar      0.000000 39.950000
    2525 A       2525       Ar      Ar      Ar      0.000000 39.950000
    2526 A       2526       Ar      Ar      Ar      0.000000 39.950000
    2527 A       2527       Ar      Ar      Ar      0.000000 39.950000
    2528 A       2528       Ar      Ar      Ar      0.000000 39.950000
    2529 A       2529       Ar      Ar      Ar      0.000000 39.950000
    2530 A       2530       Ar      Ar      Ar      0.000000 39.950000
    2531 A       2531       Ar      Ar      Ar      0.000000 39.950000
    2532 A       2532       Ar      Ar      Ar      0.000000 39.950000
    2533 A       2533       Ar      Ar      Ar      0.000000 39.950000
    2534 A       2534       Ar      Ar      Ar      0.000000 39.950000
    2535 A       2535       Ar      Ar      Ar      0.000000 39.950000
    2536 A       2536       Ar      Ar      Ar      0.000000 39.950000
    2537 A       2537       Ar      Ar      Ar      0.000000 39.950000
    2538 A       2538       Ar      Ar      Ar      0.000000 39.950000
    2539 A       2539       Ar      Ar      Ar      0.000000 39.950000
    2540 A       2540       Ar      Ar      Ar      0.000000 39.950000
    2541 A       2541       Ar      Ar      Ar      0.000000 39.950000
    2542 A       2542       Ar      Ar      Ar      0.000000 39.950000
    2543 A       2543       Ar      Ar      Ar      0.000000 39.950000
    2544 A       2544       Ar      Ar      Ar      0.000000 39.950000
    2545 A       2545       Ar      Ar      Ar      0.000000 39.950000
    2546 A       2546       Ar      Ar      Ar      0.000000 39.950000
    2547 A       2547       Ar      Ar      Ar      0.000000 39.950000
    2548 A       2548       Ar      Ar      Ar      0.000000 39.950000
    2549 A       2549       Ar      Ar      Ar      0.000000 39.950000
    2550 A       2550       Ar      Ar      Ar      0.000000 39.950000
    2551 A       2551       Ar      Ar      Ar      0.000000 39.950000
    2552 A       2552       Ar      Ar      Ar      0.000000 39.950000
    2553 A       2553       Ar      Ar      Ar      0.000000 39.950000
    2554 A       2554       Ar      Ar      Ar      0.000000 39.950000
    2555 A       2555       Ar      Ar      Ar      0.000000 39.950000
    2556 A       2556       Ar      Ar      Ar      0.000000 39.950000
    2557 A       2557       Ar      Ar      Ar      0.000000 39.950000
    2558 A       2558       Ar      Ar      Ar      0.000000 39.950000
    2559 A       2559       Ar      Ar      Ar      0.000000 39.950000
    2560 A       2560       Ar      Ar      Ar      0.000000 39.950000
    2561 A       2561       Ar      Ar      Ar      0.000000 39.950000
    2562 A       2562       Ar      Ar      Ar      0.000000 39.950000
    2563 A       2563       Ar      Ar      Ar      0.000000 39.950000
    2564 A       2564       Ar      Ar      Ar      0.000000 39.950000
    2565 A       2565       Ar      Ar      Ar      0.000000 39.950000
    2566 A       2566       Ar      Ar      Ar      0.000000 39.950000
    2567 A       2567       Ar      Ar      Ar      0.000000 39.950000
    2568 A       2568       Ar      Ar      Ar      0.000000 39.950000
    2569 A       2569       Ar      Ar      Ar      0.000000 39.950000
    2570 A       2570       Ar      Ar      Ar      0.000000 39.950000
    2571 A       2571       Ar      Ar      Ar      0.000000 39.950000
    2572 A       2572       Ar      Ar      Ar      0.000000 39.950000
    2573 A       2573       Ar      Ar      Ar      0.000000 39.950000
    2574 A       2574       Ar      Ar      Ar      0.000000 39.950000
    2575 A       2575       Ar      Ar      Ar      0.000000 39.950000
    2576 A       2576       Ar      Ar      Ar      0.000000 39.950000
    2577 A       2577       Ar      Ar      Ar      0.000000 39.950000
    2578 A       2578       Ar      Ar      Ar      0.000000 39.950000
    2579 A       2579       Ar      Ar      Ar      0.000000 39.950000
    2580 A       2580       Ar      Ar      Ar      0.000000 39.950000
    2581 A       2581       Ar      Ar      Ar      0.000000 39.950000
    2582 A       2582       Ar      Ar      Ar      0.000000 39.950000
    2583 A       2583       Ar      Ar      Ar      0.000000 39.950000
    2584 A       2584       Ar      Ar      Ar      0.000000 39.950000
    2585 A       2585       Ar      Ar      Ar      0.000000 39.950000
    2586 A       2586       Ar      Ar      Ar      0.000000 39.950000
    2587 A       2587       Ar      Ar      Ar      0.000000 39.950000
    2588 A       2588       Ar      Ar      Ar      0.000000 39.950000
    2589 A       2589       Ar      Ar      Ar      0.000000 39.950000
    2590 A       2590       Ar      Ar      Ar      0.000000 39.950000
    2591 A       2591       Ar      Ar      Ar      0.000000 39.950000
    2592 A       2592       Ar      Ar      Ar      0.000000 39.950000
    2593 A       2593       Ar      Ar      Ar      0.000000 39.950000
    2594 A       2594       Ar      Ar      Ar      0.000000 39.950000
    2595 A       2595       Ar      Ar      Ar      0.000000 39.950000
    2596 A       2596       Ar      Ar      Ar      0.000000 39.950000
    2597 A       2597       Ar      Ar      Ar      0.000000 39.950000
    2598 A       2598       Ar      Ar      Ar      0.000000 39.950000
    2599 A       2599       Ar      Ar      Ar      0.000000 39.950000
    2600 A       2600       Ar      Ar      Ar      0.000000 39.950000
    2601 A       2601       Ar      Ar      Ar      0.000000 39.950000
    2602 A       2602       Ar      Ar      Ar      0.000000 39.950000
    2603 A       2603       Ar      Ar      Ar      0.000000 39.950000
    2604 A       2604       Ar      Ar      Ar      0.000000 39.950000
    2605 A       2605       Ar      Ar      Ar      0.000000 39.950000
    2606 A       2606       Ar      Ar      Ar      0.000000 39.950000
    2607 A       2607       Ar      Ar      Ar      0.000000 39.950000
    2608 A       2608       Ar      Ar      Ar      0.000000 39.950000
    2609 A       2609       Ar      Ar      Ar      0.000000 39.950000
    2610 A       2610       Ar      Ar      Ar      0.000000 39.950000
    2611 A       2611       Ar      Ar      Ar      0.000000 39.950000
    2612 A       2612       Ar      Ar      Ar      0.000000 39.950000
    2613 A       2613       Ar      Ar      Ar      0.000000 39.950000
    2614 A       2614       Ar      Ar      Ar      0.000000 39.950000
    2615 A       2615       Ar      Ar      Ar      0.000000 39.950000
    2616 A       2616       Ar      Ar      Ar      0.000000 39.950000
    2617 A       2617       Ar      Ar      Ar      0.000000 39.950000
    2618 A       2618       Ar      Ar      Ar      0.000000 39.950000
    2619 A       2619       Ar      Ar      Ar      0.000000 39.950000
    2620 A       2620       Ar      Ar      Ar      0.000000 39.950000
    2621 A       2621       Ar      Ar      Ar      0.000000 39.950000
    2622 A       2622       Ar      Ar      Ar      0.000000 39.950000
    2623 A       2623       Ar      Ar      Ar      0.000000 39.950000
    2624 A       2624       Ar      Ar      Ar      0.000000 39.950000
    2625 A       2625       Ar      Ar      Ar      0.000000 39.950000
    2626 A       2626       Ar      Ar      Ar      0.000000 39.950000
    2627 A       2627       Ar      Ar      Ar      0.000000 39.950000
    2628 A       2628       Ar      Ar      Ar      0.000000 39.950000
    2629 A       2629       Ar      Ar      Ar      0.000000 39.950000
    2630 A       2630       Ar      Ar      Ar      0.000000 39.950000
    2631 A       2631       Ar      Ar      Ar      0.000000 39.950000
    2632 A       2632       Ar      Ar      Ar      0.000000 39.950000
    2633 A       2633       Ar      Ar      Ar      0.000000 39.950000
    2634 A       2634       Ar      Ar      Ar      0.000000 39.950000
    2635 A       2635       Ar      Ar      Ar      0.000000 39.950000
    2636 A       2636       Ar      Ar      Ar      0.000000 39.950000
    2637 A       2637       Ar      Ar      Ar      0.000000 39.950000
    2638 A       2638       Ar      Ar      Ar      0.000000 39.950000
    2639 A       2639       Ar      Ar      Ar      0.000000 39.950000
    2640 A       2640       Ar      Ar      Ar      0.000000 39.950000
    2641 A       2641       Ar      Ar      Ar      0.000000 39.950000
    2642 A       2642       Ar      Ar      Ar      0.000000 39.950000
    2643 A       2643       Ar      Ar      Ar      0.000000 39.950000
    2644 A       2644       Ar      Ar      Ar      0.000000 39.950000
    2645 A       2645       Ar      Ar      Ar      0.000000 39.950000
    2646 A       2646       Ar      Ar      Ar      0.000000 39.950000
    2647 A       2647       Ar      Ar      Ar      0.000000 39.950000
    2648 A       2648       Ar      Ar      Ar      0.000000 39.950000
    2649 A       2649       Ar      Ar      Ar      0.000000 39.950000
    2650 A       2650       Ar      Ar      Ar      0.000000 39.950000
    2651 A       2651       Ar      Ar      Ar      0.000000 39.950000
    2652 A       2652       Ar      Ar      Ar      0.000000 39.950000
    2653 A       2653       Ar      Ar      Ar      0.000000 39.950000
    2654 A       2654       Ar      Ar      Ar      0.000000 39.950000
    2655 A       2655       Ar      Ar      Ar      0.000000 39.950000
    2656 A       2656       Ar      Ar      Ar      0.000000 39.950000
    2657 A       2657       Ar      Ar      Ar      0.000000 39.950000
    2658 A       2658       Ar      Ar      Ar      0.000000 39.950000
    2659 A       2659       Ar      Ar      Ar      0.000000 39.950000
    2660 A       2660       Ar      Ar      Ar      0.000000 39.950000
    2661 A       2661       Ar      Ar      Ar      0.000000 39.950000
    2662 A       2662       Ar      Ar      Ar      0.000000 39.950000
    2663 A       2663       Ar      Ar      Ar      0.000000 39.950000
    2664 A       2664       Ar      Ar      Ar      0.000000 39.950000
    2665 A       2665       Ar      Ar      Ar      0.000000 39.950000
    2666 A       2666       Ar      Ar      Ar      0.000000 39.950000
    2667 A       2667       Ar      Ar      Ar      0.000000 39.950000
    2668 A       2668       Ar      Ar      Ar      0.000000 39.950000
    2669 A       2669       Ar      Ar      Ar      0.000000 39.950000
    2670 A       2670       Ar      Ar      Ar      0.000000 39.950000
    2671 A       2671       Ar      Ar      Ar      0.000000 39.950000
    2672 A       2672       Ar      Ar      Ar      0.000000 39.950000
    2673 A       2673       Ar      Ar      Ar      0.000000 39.950000
    2674 A       2674       Ar      Ar      Ar      0.000000 39.950000
    2675 A       2675       Ar      Ar      Ar      0.000000 39.950000
    2676 A       2676       Ar      Ar      Ar      0.000000 39.950000
    2677 A       2677       Ar      Ar      Ar      0.000000 39.950000
    2678 A       2678       Ar      Ar      Ar      0.000000 39.950000
    2679 A       2679       Ar      Ar      Ar      0.000000 39.950000
    2680 A       2680       Ar      Ar      Ar      0.000000 39.950000
    2681 A       2681       Ar      Ar      Ar      0.000000 39.950000
    2682 A       2682       Ar      Ar      Ar      0.000000 39.950000
    2683 A       2683       Ar      Ar      Ar      0.000000 39.950000
    2684 A       2684       Ar      Ar      Ar      0.000000 39.950000
    2685 A       2685       Ar      Ar      Ar      0.000000 39.950000
    2686 A       2686       Ar      Ar      Ar      0.000000 39.950000
    2687 A       2687       Ar      Ar      Ar      0.000000 39.950000
    2688 A       2688       Ar      Ar      Ar      0.000000 39.950000
    2689 A       2689       Ar      Ar      Ar      0.000000 39.950000
    2690 A       2690       Ar      Ar      Ar      0.000000 39.950000
    2691 A       2691       Ar      Ar      Ar      0.000000 39.950000
    2692 A       2692       Ar      Ar      Ar      0.000000 39.950000
    2693 A       2693       Ar      Ar      Ar      0.000000 39.950000
    2694 A       2694       Ar      Ar      Ar      0.000000 39.950000
    2695 A       2695       Ar      Ar      Ar      0.000000 39.950000
    2696 A       2696       Ar      Ar      Ar      0.000000 39.950000
    2697 A       2697       Ar      Ar      Ar      0.000000 39.950000
    2698 A       2698       Ar      Ar      Ar      0.000000 39.950000
    2699 A       2699       Ar      Ar      Ar      0.000000 39.950000
    2700 A       2700       Ar      Ar      Ar      0.000000 39.950000
    2701 A       2701       Ar      Ar      Ar      0.000000 39.950000
    2702 A       2702       Ar      Ar      Ar      0.000000 39.950000
    2703 A       2703       Ar      Ar      Ar      0.000000 39.950000
    2704 A       2704       Ar      Ar      Ar      0.000000 39.950000
    2705 A       2705       Ar      Ar      Ar      0.000000 39.950000
    2706 A       2706       Ar      Ar      Ar      0.000000 39.950000
    2707 A       2707       Ar      Ar      Ar      0.000000 39.950000
    2708 A       2708       Ar      Ar      Ar      0.000000 39.950000
    2709 A       2709       Ar      Ar      Ar      0.000000 39.950000
    2710 A       2710       Ar      Ar      Ar      0.000000 39.950000
    2711 A       2711       Ar      Ar      Ar      0.000000 39.950000
    2712 A       2712       Ar      Ar      Ar      0.000000 39.950000
    2713 A       2713       Ar      Ar      Ar      0.000000 39.950000
    2714 A       2714       Ar      Ar      Ar      0.000000 39.950000
    2715 A       2715       Ar      Ar      Ar      0.000000 39.950000
    2716 A       2716       Ar      Ar      Ar      0.000000 39.950000
    2717 A       2717       Ar      Ar      Ar      0.000000 39.950000
    2718 A       2718       Ar      Ar      Ar      0.000000 39.950000
    2719 A       2719       Ar      Ar      Ar      0.000000 39.950000
    2720 A       2720       Ar      Ar      Ar      0.000000 39.950000
    2721 A       2721       Ar      Ar      Ar      0.000000 39.950000
    2722 A       2722       Ar      Ar      Ar      0.000000 39.950000
    2723 A       2723       Ar      Ar      Ar      0.000000 39.950000
    2724 A       2724       Ar      Ar      Ar      0.000000 39.950000
    2725 A       2725       Ar      Ar      Ar      0.000000 39.950000
    2726 A       2726       Ar      Ar      Ar      0.000000 39.950000
    2727 A       2727       Ar      Ar      Ar      0.000000 39.950000
    2728 A       2728       Ar      Ar      Ar      0.000000 39.950000
    2729 A       2729       Ar      Ar      Ar      0.000000 39.950000
    2730 A       2730       Ar      Ar      Ar      0.000000 39.950000
    2731 A       2731       Ar      Ar      Ar      0.000000 39.950000
    2732 A       2732       Ar      Ar      Ar      0.000000 39.950000
    2733 A       2733       Ar      Ar      Ar      0.000000 39.950000
    2734 A       2734       Ar      Ar      Ar      0.000000 39.950000
    2735 A       2735       Ar      Ar      Ar      0.000000 39.950000
    2736 A       2736       Ar      Ar      Ar      0.000000 39.950000
    2737 A       2737       Ar      Ar      Ar      0.000000 39.950000
    2738 A       2738       Ar      Ar      Ar      0.000000 39.950000
    2739 A       2739       Ar      Ar      Ar      0.000000 39.950000
    2740 A       2740       Ar      Ar      Ar      0.000000 39.950000
    2741 A       2741       Ar      Ar      Ar      0.000000 39.950000
    2742 A       2742       Ar      Ar      Ar      0.000000 39.950000
    2743 A       2743       Ar      Ar      Ar      0.000000 39.950000
    2744 A       2744       Ar      Ar      Ar      0.000000 39.950000
    2745 A       2745       Ar      Ar      Ar      0.000000 39.950000
    2746 A       2746       Ar      Ar      Ar      0.000000 39.950000
    2747 A       2747       Ar      Ar      Ar      0.000000 39.950000
    2748 A       2748       Ar      Ar      Ar      0.000000 39.950000
    2749 A       2749       Ar      Ar      Ar      0.000000 39.950000
    2750 A       2750       Ar      Ar      Ar      0.000000 39.950000
    2751 A       2751       Ar      Ar      Ar      0.000000 39.950000
    2752 A       2752       Ar      Ar      Ar      0.000000 39.950000
    2753 A       2753       Ar      Ar      Ar      0.000000 39.950000
    2754 A       2754       Ar      Ar      Ar      0.000000 39.950000
    2755 A       2755       Ar      Ar      Ar      0.000000 39.950000
    2756 A       2756       Ar      Ar      Ar      0.000000 39.950000
    2757 A       2757       Ar      Ar      Ar      0.000000 39.950000
    2758 A       2758       Ar      Ar      Ar      0.000000 39.950000
    2759 A       2759       Ar      Ar      Ar      0.000000 39.950000
    2760 A       2760       Ar      Ar      Ar      0.000000 39.950000
    2761 A       2761       Ar      Ar      Ar      0.000000 39.950000
    2762 A       2762       Ar      Ar      Ar      0.000000 39.950000
    2763 A       2763       Ar      Ar      Ar      0.000000 39.950000
    2764 A       2764       Ar      Ar      Ar      0.000000 39.950000
    2765 A       2765       Ar      Ar      Ar      0.000000 39.950000
    2766 A       2766       Ar      Ar      Ar      0.000000 39.950000
    2767 A       2767       Ar      Ar      Ar      0.000000 39.950000
    2768 A       2768       Ar      Ar      Ar      0.000000 39.950000
    2769 A       2769       Ar      Ar      Ar      0.000000 39.950000
    2770 A       2770       Ar      Ar      Ar      0.000000 39.950000
    2771 A       2771       Ar      Ar      Ar      0.000000 39.950000
    2772 A       2772       Ar      Ar      Ar      0.000000 39.950000
    2773 A       2773       Ar      Ar      Ar      0.000000 39.950000
    2774 A       2774       Ar      Ar      Ar      0.000000 39.950000
    2775 A       2775       Ar      Ar      Ar      0.000000 39.950000
    2776 A       2776       Ar      Ar      Ar      0.000000 39.950000
    2777 A       2777       Ar      Ar      Ar      0.000000 39.950000
    2778 A       2778       Ar      Ar      Ar      0.000000 39.950000
    2779 A       2779       Ar      Ar      Ar      0.000000 39.950000
    2780 A       2780       Ar      Ar      Ar      0.000000 39.950000
    2781 A       2781       Ar      Ar      Ar      0.000000 39.950000
    2782 A       2782       Ar      Ar      Ar      0.000000 39.950000
    2783 A       2783       Ar      Ar      Ar      0.000000 39.950000
    2784 A       2784       Ar      Ar      Ar      0.000000 39.950000
    2785 A       2785       Ar      Ar      Ar      0.000000 39.950000
    2786 A       2786       Ar      Ar      Ar      0.000000 39.950000
    2787 A       2787       Ar      Ar      Ar      0.000000 39.950000
    2788 A       2788       Ar      Ar      Ar      0.000000 39.950000
    2789 A       2789       Ar      Ar      Ar      0.000000 39.950000
    2790 A       2790       Ar      Ar      Ar      0.000000 39.950000
    2791 A       2791       Ar      Ar      Ar      0.000000 39.950000
    2792 A       2792       Ar      Ar      Ar      0.000000 39.950000
    2793 A       2793       Ar      Ar      Ar      0.000000 39.950000
    2794 A       2794       Ar      Ar      Ar      0.000000 39.950000
    2795 A       2795       Ar      Ar      Ar      0.000000 39.950000
    2796 A       2796       Ar      Ar      Ar      0.000000 39.950000
    2797 A       2797       Ar      Ar      Ar      0.000000 39.950000
    2798 A       2798       Ar      Ar      Ar      0.000000 39.950000
    2799 A       2799       Ar      Ar      Ar      0.000000 39.950000
    2800 A       2800       Ar      Ar      Ar      0.000000 39.950000
    2801 A       2801       Ar      Ar      Ar      0.000000 39.950000
    2802 A       2802       Ar      Ar      Ar      0.000000 39.950000
    2803 A       2803       Ar      Ar      Ar      0.000000 39.950000
    2804 A       2804       Ar      Ar      Ar      0.000000 39.950000
    2805 A       2805       Ar      Ar      Ar      0.000000 39.950000
    2806 A       2806       Ar      Ar      Ar      0.000000 39.950000
    2807 A       2807       Ar      Ar      Ar      0.000000 39.950000
    2808 A       2808       Ar      Ar      Ar      0.000000 39.950000
    2809 A       2809       Ar      Ar      Ar      0.000000 39.950000
    2810 A       2810       Ar      Ar      Ar      0.000000 39.950000
    2811 A       2811       Ar      Ar      Ar      0.000000 39.950000
    2812 A       2812       Ar      Ar      Ar      0.000000 39.950000
    2813 A       2813       Ar      Ar      Ar      0.000000 39.950000
    2814 A       2814       Ar      Ar      Ar      0.000000 39.950000
    2815 A       2815       Ar      Ar      Ar      0.000000 39.950000
    2816 A       2816       Ar      Ar      Ar      0.000000 39.950000
    2817 A       2817       Ar      Ar      Ar      0.000000 39.950000
    2818 A       2818       Ar      Ar      Ar      0.000000 39.950000
    2819 A       2819       Ar      Ar      Ar      0.000000 39.950000
    2820 A       2820       Ar      Ar      Ar      0.000000 39.950000
    2821 A       2821       Ar      Ar      Ar      0.000000 39.950000
    2822 A       2822       Ar      Ar      Ar      0.000000 39.950000
    2823 A       2823       Ar      Ar      Ar      0.000000 39.950000
    2824 A       2824       Ar      Ar      Ar      0.000000 39.950000
    2825 A       2825       Ar      Ar      Ar      0.000000 39.950000
    2826 A       2826       Ar      Ar      Ar      0.000000 39.950000
    2827 A       2827       Ar      Ar      Ar      0.000000 39.950000
    2828 A       2828       Ar      Ar      Ar      0.000000 39.950000
    2829 A       2829       Ar      Ar      Ar      0.000000 39.950000
    2830 A       2830       Ar      Ar      Ar      0.000000 39.950000
    2831 A       2831       Ar      Ar      Ar      0.000000 39.950000
    2832 A       2832       Ar      Ar      Ar      0.000000 39.950000
    2833 A       2833       Ar      Ar      Ar      0.000000 39.950000
    2834 A       2834       Ar      Ar      Ar      0.000000 39.950000
    2835 A       2835       Ar      Ar      Ar      0.000000 39.950000
    2836 A       2836       Ar      Ar      Ar      0.000000 39.950000
    2837 A       2837       Ar      Ar      Ar      0.000000 39.950000
    2838 A       2838       Ar      Ar      Ar      0.000000 39.950000
    2839 A       2839       Ar      Ar      Ar      0.000000 39.950000
    2840 A       2840       Ar      Ar      Ar      0.000000 39.950000
    2841 A       2841       Ar      Ar      Ar      0.000000 39.950000
    2842 A       2842       Ar      Ar      Ar      0.000000 39.950000
    2843 A       2843       Ar      Ar      Ar      0.000000 39.950000
    2844 A       2844       Ar      Ar      Ar      0.000000 39.950000
    2845 A       2845       Ar      Ar      Ar      0.000000 39.950000
    2846 A       2846       Ar      Ar      Ar      0.000000 39.950000
    2847 A       2847       Ar      Ar      Ar      0.000000 39.950000
    2848 A       2848       Ar      Ar      Ar      0.000000 39.950000
    2849 A       2849       Ar      Ar      Ar      0.000000 39.950000
    2850 A       2850       Ar      Ar      Ar      0.000000 39.950000
    2851 A       2851       Ar      Ar      Ar      0.000000 39.950000
    2852 A       2852       Ar      Ar      Ar      0.000000 39.950000
    2853 A       2853       Ar      Ar      Ar      0.000000 39.950000
    2854 A       2854       Ar      Ar      Ar      0.000000 39.950000
    2855 A       2855       Ar      Ar      Ar      0.000000 39.950000
    2856 A       2856       Ar      Ar      Ar      0.000000 39.950000
    2857 A       2857       Ar      Ar      Ar      0.000000 39.950000
    2858 A       2858       Ar      Ar      Ar      0.000000 39.950000
    2859 A       2859       Ar      Ar      Ar      0.000000 39.950000
    2860 A       2860       Ar      Ar      Ar      0.000000 39.950000
    2861 A       2861       Ar      Ar      Ar      0.000000 39.950000
    2862 A       2862       Ar      Ar      Ar      0.000000 39.950000
    2863 A       2863       Ar      Ar      Ar      0.000000 39.950000
    2864 A       2864       Ar      Ar      Ar      0.000000 39.950000
    2865 A       2865       Ar      Ar      Ar      0.000000 39.950000
    2866 A       2866       Ar      Ar      Ar      0.000000 39.950000
    2867 A       2867       Ar      Ar      Ar      0.000000 39.950000
    2868 A       2868       Ar      Ar      Ar      0.000000 39.950000
    2869 A       2869       Ar      Ar      Ar      0.000000 39.950000
    2870 A       2870       Ar      Ar      Ar      0.000000 39.950000
    2871 A       2871       Ar      Ar      Ar      0.000000 39.950000
    2872 A       2872       Ar      Ar      Ar      0.000000 39.950000
    2873 A       2873       Ar      Ar      Ar      0.000000 39.950000
    2874 A       2874       Ar      Ar      Ar      0.000000 39.950000
    2875 A       2875       Ar      Ar      Ar      0.000000 39.950000
    2876 A       2876       Ar      Ar      Ar      0.000000 39.950000
    2877 A       2877       Ar      Ar      Ar      0.000000 39.950000
    2878 A       2878       Ar      Ar      Ar      0.000000 39.950000
    2879 A       2879       Ar      Ar      Ar      0.000000 39.950000
    2880 A       2880       Ar      Ar      Ar      0.000000 39.950000
    2881 A       2881       Ar      Ar      Ar      0.000000 39.950000
    2882 A       2882       Ar      Ar      Ar      0.000000 39.950000
    2883 A       2883       Ar      Ar      Ar      0.000000 39.950000
    2884 A       2884       Ar      Ar      Ar      0.000000 39.950000
    2885 A       2885       Ar      Ar      Ar      0.000000 39.950000
    2886 A       2886       Ar      Ar      Ar      0.000000 39.950000
    2887 A       2887       Ar      Ar      Ar      0.000000 39.950000
    2888 A       2888       Ar      Ar      Ar      0.000000 39.950000
    2889 A       2889       Ar      Ar      Ar      0.000000 39.950000
    2890 A       2890       Ar      Ar      Ar      0.000000 39.950000
    2891 A       2891       Ar      Ar      Ar      0.000000 39.950000
    2892 A       2892       Ar      Ar      Ar      0.000000 39.950000
    2893 A       2893       Ar      Ar      Ar      0.000000 39.950000
    2894 A       2894       Ar      Ar      Ar      0.000000 39.950000
    2895 A       2895       Ar      Ar      Ar      0.000000 39.950000
    2896 A       2896       Ar      Ar      Ar      0.000000 39.950000
    2897 A       2897       Ar      Ar      Ar      0.000000 39.950000
    2898 A       2898       Ar      Ar      Ar      0.000000 39.950000
    2899 A       2899       Ar      Ar      Ar      0.000000 39.950000
    2900 A       2900       Ar      Ar      Ar      0.000000 39.950000
    2901 A       2901       Ar      Ar      Ar      0.000000 39.950000
    2902 A       2902       Ar      Ar      Ar      0.000000 39.950000
    2903 A       2903       Ar      Ar      Ar      0.000000 39.950000
    2904 A       2904       Ar      Ar      Ar      0.000000 39.950000
    2905 A       2905       Ar      Ar      Ar      0.000000 39.950000
    2906 A       2906       Ar      Ar      Ar      0.000000 39.950000
    2907 A       2907       Ar      Ar      Ar      0.000000 39.950000
    2908 A       2908       Ar      Ar      Ar      0.000000 39.950000
    2909 A       2909       Ar      Ar      Ar      0.000000 39.950000
    2910 A       2910       Ar      Ar      Ar      0.000000 39.950000
    2911 A       2911       Ar      Ar      Ar      0.000000 39.950000
    2912 A       2912       Ar      Ar      Ar      0.000000 39.950000
    2913 A       2913       Ar      Ar      Ar      0.000000 39.950000
    2914 A       2914       Ar      Ar      Ar      0.000000 39.950000
    2915 A       2915       Ar      Ar      Ar      0.000000 39.950000
    2916 A       2916       Ar      Ar      Ar      0.000000 39.950000
    2917 A       2917       Ar      Ar      Ar      0.000000 39.950000
    2918 A       2918       Ar      Ar      Ar      0.000000 39.950000
    2919 A       2919       Ar      Ar      Ar      0.000000 39.950000
    2920 A       2920       Ar      Ar      Ar      0.000000 39.950000
    2921 A       2921       Ar      Ar      Ar      0.000000 39.950000
    2922 A       2922       Ar      Ar      Ar      0.000000 39.950000
    2923 A       2923       Ar      Ar      Ar      0.000000 39.950000
    2924 A       2924       Ar      Ar      Ar      0.000000 39.950000
    2925 A       2925       Ar      Ar      Ar      0.000000 39.950000
    2926 A       2926       Ar      Ar      Ar      0.000000 39.950000
    2927 A       2927       Ar      Ar      Ar      0.000000 39.950000
    2928 A       2928       Ar      Ar      Ar      0.000000 39.950000
    2929 A       2929       Ar      Ar      Ar      0.000000 39.950000
    2930 A       2930       Ar      Ar      Ar      0.000000 39.950000
    2931 A       2931       Ar      Ar      Ar      0.000000 39.950000
    2932 A       2932       Ar      Ar      Ar      0.000000 39.950000
    2933 A       2933       Ar      Ar      Ar      0.000000 39.950000
    2934 A       2934       Ar      Ar      Ar      0.000000 39.950000
    2935 A       2935       Ar      Ar      Ar      0.000000 39.950000
    2936 A       2936       Ar      Ar      Ar      0.000000 39.950000
    2937 A       2937       Ar      Ar      Ar      0.000000 39.950000
    2938 A       2938       Ar      Ar      Ar      0.000000 39.950000
    2939 A       2939       Ar      Ar      Ar      0.000000 39.950000
    2940 A       2940       Ar      Ar      Ar      0.000000 39.950000
    2941 A       2941       Ar      Ar      Ar      0.000000 39.950000
    2942 A       2942       Ar      Ar      Ar      0.000000 39.950000
    2943 A       2943       Ar      Ar      Ar      0.000000 39.950000
    2944 A       2944       Ar      Ar      Ar      0.000000 39.950000
    2945 A       2945       Ar      Ar      Ar      0.000000 39.950000
    2946 A       2946       Ar      Ar      Ar      0.000000 39.950000
    2947 A       2947       Ar      Ar      Ar      0.000000 39.950000
    2948 A       2948       Ar      Ar      Ar      0.000000 39.950000
    2949 A       2949       Ar      Ar      Ar      0.000000 39.950000
    2950 A       2950       Ar      Ar      Ar      0.000000 39.950000
    2951 A       2951       Ar      Ar      Ar      0.000000 39.950000
    2952 A       2952       Ar      Ar      Ar      0.000000 39.950000
    2953 A       2953       Ar      Ar      Ar      0.000000 39.950000
    2954 A       2954       Ar      Ar      Ar      0.000000 39.950000
    2955 A       2955       Ar      Ar      Ar      0.000000 39.950000
    2956 A       2956       Ar      Ar      Ar      0.000000 39.950000
    2957 A       2957       Ar      Ar      Ar      0.000000 39.950000
    2958 A       2958       Ar      Ar      Ar      0.000000 39.950000
    2959 A       2959       Ar      Ar      Ar      0.000000 39.950000
    2960 A       2960       Ar      Ar      Ar      0.000000 39.950000
    2961 A       2961       Ar      Ar      Ar      0.000000 39.950000
    2962 A       2962       Ar      Ar      Ar      0.000000 39.950000
    2963 A       2963       Ar      Ar      Ar      0.000000 39.950000
    2964 A       2964       Ar      Ar      Ar      0.000000 39.950000
    2965 A       2965       Ar      Ar      Ar      0.000000 39.950000
    2966 A       2966       Ar      Ar      Ar      0.000000 39.950000
    2967 A       2967       Ar      Ar      Ar      0.000000 39.950000
    2968 A       2968       Ar      Ar      Ar      0.000000 39.950000
    2969 A       2969       Ar      Ar      Ar      0.000000 39.950000
    2970 A       2970       Ar      Ar      Ar      0.000000 39.950000
    2971 A       2971       Ar      Ar      Ar      0.000000 39.950000
    2972 A       2972       Ar      Ar      Ar      0.000000 39.950000
    2973 A       2973       Ar      Ar      Ar      0.000000 39.950000
    2974 A       2974       Ar      Ar      Ar      0.000000 39.950000
    2975 A       2975       Ar      Ar      Ar      0.000000 39.950000
    2976 A       2976       Ar      Ar      Ar      0.000000 39.950000
    2977 A       2977       Ar      Ar      Ar      0.000000 39.950000
    2978 A       2978       Ar      Ar      Ar      0.000000 39.950000
    2979 A       2979       Ar      Ar      Ar      0.000000 39.950000
    2980 A       2980       Ar      Ar      Ar      0.000000 39.950000
    2981 A       2981       Ar      Ar      Ar      0.000000 39.950000
    2982 A       2982       Ar      Ar      Ar      0.000000 39.950000
    2983 A       2983       Ar      Ar      Ar      0.000000 39.950000
    2984 A       2984       Ar      Ar      Ar      0.000000 39.950000
    2985 A       2985       Ar      Ar      Ar      0.000000 39.950000
    2986 A       2986       Ar      Ar      Ar      0.000000 39.950000
    2987 A       2987       Ar      Ar      Ar      0.000000 39.950000
    2988 A       2988       Ar      Ar      Ar      0.000000 39.950000
    2989 A       2989       Ar      Ar      Ar      0.000000 39.950000
    2990 A       2990       Ar      Ar      Ar      0.000000 39.950000
    2991 A       2991       Ar      Ar      Ar      0.000000 39.950000
    2992 A       2992       Ar      Ar      Ar      0.000000 39.950000
    2993 A       2993       Ar      Ar      Ar      0.000000 39.950000
    2994 A       2994       Ar      Ar      Ar      0.000000 39.950000
    2995 A       2995       Ar      Ar      Ar      0.000000 39.950000
    2996 A       2996       Ar      Ar      Ar      0.000000 39.950000
    2997 A       2997       Ar      Ar      Ar      0.000000 39.950000
    2998 A       2998       Ar      Ar      Ar      0.000000 39.950000
    2999 A       2999       Ar      Ar      Ar      0.000000 39.950000
    3000 A       3000       Ar      Ar      Ar      0.000000 39.950000
    3001 A       3001       Ar      Ar      Ar      0.000000 39.950000
    3002 A       3002       Ar      Ar      Ar      0.000000 39.950000
    3003 A       3003       Ar      Ar      Ar      0.000000 39.950000
    3004 A       3004       Ar      Ar      Ar      0.000000 39.950000
    3005 A       3005       Ar      Ar      Ar      0.000000 39.950000
    3006 A       3006       Ar      Ar      Ar      0.000000 39.950000
    3007 A       3007       Ar      Ar      Ar      0.000000 39.950000
    3008 A       3008       Ar      Ar      Ar      0.000000 39.950000
    3009 A       3009       Ar      Ar      Ar      0.000000 39.950000
    3010 A       3010       Ar      Ar      Ar      0.000000 39.950000
    3011 A       3011       Ar      Ar      Ar      0.000000 39.950000
    3012 A       3012       Ar      Ar      Ar      0.000000 39.950000
    3013 A       3013       Ar      Ar      Ar      0.000000 39.950000
    3014 A       3014       Ar      Ar      Ar      0.000000 39.950000
    3015 A       3015       Ar      Ar      Ar      0.000000 39.950000
    3016 A       3016       Ar      Ar      Ar      0.000000 39.950000
    3017 A       3017       Ar      Ar      Ar      0.000000 39.950000
    3018 A       3018       Ar      Ar      Ar      0.000000 39.950000
    3019 A       3019       Ar      Ar      Ar      0.000000 39.950000
    3020 A       3020       Ar      Ar      Ar      0.000000 39.950000
    3021 A       3021       Ar      Ar      Ar      0.000000 39.950000
    3022 A       3022       Ar      Ar      Ar      0.000000 39.950000
    3023 A       3023       Ar      Ar      Ar      0.000000 39.950000
    3024 A       3024       Ar      Ar      Ar      0.000000 39.950000
    3025 A       3025       Ar      Ar      Ar      0.000000 39.950000
    3026 A       3026       Ar      Ar      Ar      0.000000 39.950000
    3027 A       3027       Ar      Ar      Ar      0.000000 39.950000
    3028 A       3028       Ar      Ar      Ar      0.000000 39.950000
    3029 A       3029       Ar      Ar      Ar      0.000000 39.950000
    3030 A       3030       Ar      Ar      Ar      0.000000 39.950000
    3031 A       3031       Ar      Ar      Ar      0.000000 39.950000
    3032 A       3032       Ar      Ar      Ar      0.000000 39.950000
    3033 A       3033       Ar      Ar      Ar      0.000000 39.950000
    3034 A       3034       Ar      Ar      Ar      0.000000 39.950000
    3035 A       3035       Ar      Ar      Ar      0.000000 39.950000
    3036 A       3036       Ar      Ar      Ar      0.000000 39.950000
    3037 A       3037       Ar      Ar      Ar      0.000000 39.950000
    3038 A       3038       Ar      Ar      Ar      0.000000 39.950000
    3039 A       3039       Ar      Ar      Ar      0.000000 39.950000
    3040 A       3040       Ar      Ar      Ar      0.000000 39.950000
    3041 A       3041       Ar      Ar      Ar      0.000000 39.950000
    3042 A       3042       Ar      Ar      Ar      0.000000 39.950000
    3043 A       3043       Ar      Ar      Ar      0.000000 39.950000
    3044 A       3044       Ar      Ar      Ar      0.000000 39.950000
    3045 A       3045       Ar      Ar      Ar      0.000000 39.950000
    3046 A       3046       Ar      Ar      Ar      0.000000 39.950000
    3047 A       3047       Ar      Ar      Ar      0.000000 39.950000
    3048 A       3048       Ar      Ar      Ar      0.000000 39.950000
    3049 A       3049       Ar      Ar      Ar      0.000000 39.950000
    3050 A       3050       Ar      Ar      Ar      0.000000 39.950000
    3051 A       3051       Ar      Ar      Ar      0.000000 39.950000
    3052 A       3052       Ar      Ar      Ar      0.000000 39.950000
    3053 A       3053       Ar      Ar      Ar      0.000000 39.950000
    3054 A       3054       Ar      Ar      Ar      0.000000 39.950000
    3055 A       3055       Ar      Ar      Ar      0.000000 39.950000
    3056 A       3056       Ar      Ar      Ar      0.000000 39.950000
    3057 A       3057       Ar      Ar      Ar      0.000000 39.950000
    3058 A       3058       Ar      Ar      Ar      0.000000 39.950000
    3059 A       3059       Ar      Ar      Ar      0.000000 39.950000
    3060 A       3060       Ar      Ar      Ar      0.000000 39.950000
    3061 A       3061       Ar      Ar      Ar      0.000000 39.950000
    3062 A       3062       Ar      Ar      Ar      0.000000 39.950000
    3063 A       3063       Ar      Ar      Ar      0.000000 39.950000
    3064 A       3064       Ar      Ar      Ar      0.000000 39.950000
    3065 A       3065       Ar      Ar      Ar      0.000000 39.950000
    3066 A       3066       Ar      Ar      Ar      0.000000 39.950000
    3067 A       3067       Ar      Ar      Ar      0.000000 39.950000
    3068 A       3068       Ar      Ar      Ar      0.000000 39.950000
    3069 A       3069       Ar      Ar      Ar      0.000000 39.950000
    3070 A       3070       Ar      Ar      Ar      0.000000 39.950000
    3071 A       3071       Ar      Ar      Ar      0.000000 39.950000
    3072 A       3072       Ar      Ar      Ar      0.000000 39.950000
    3073 A       3073       Ar      Ar      Ar      0.000000 39.950000
    3074 A       3074       Ar      Ar      Ar      0.000000 39.950000
    3075 A       3075       Ar      Ar      Ar      0.000000 39.950000
    3076 A       3076       Ar      Ar      Ar      0.000000 39.950000
    3077 A       3077       Ar      Ar      Ar      0.000000 39.950000
    3078 A       3078       Ar      Ar      Ar      0.000000 39.950000
    3079 A       3079       Ar      Ar      Ar      0.000000 39.950000
    3080 A       3080       Ar      Ar      Ar      0.000000 39.950000
    3081 A       3081       Ar      Ar      Ar      0.000000 39.950000
    3082 A       3082       Ar      Ar      Ar      0.000000 39.950000
    3083 A       3083       Ar      Ar      Ar      0.000000 39.950000
    3084 A       3084       Ar      Ar      Ar      0.000000 39.950000
    3085 A       3085       Ar      Ar      Ar      0.000000 39.950000
    3086 A       3086       Ar      Ar      Ar      0.000000 39.950000
    3087 A       3087       Ar      Ar      Ar      0.000000 39.950000
    3088 A       3088       Ar      Ar      Ar      0.000000 39.950000
    3089 A       3089       Ar      Ar      Ar      0.000000 39.950000
    3090 A       3090       Ar      Ar      Ar      0.000000 39.950000
    3091 A       3091       Ar      Ar      Ar      0.000000 39.950000
    3092 A       3092       Ar      Ar      Ar      0.000000 39.950000
    3093 A       3093       Ar      Ar      Ar      0.000000 39.950000
    3094 A       3094       Ar      Ar      Ar      0.000000 39.950000
    3095 A       3095       Ar      Ar      Ar      0.000000 39.950000
    3096 A       3096       Ar      Ar      Ar      0.000000 39.950000
    3097 A       3097       Ar      Ar      Ar      0.000000 39.950000
    3098 A       3098       Ar      Ar      Ar      0.000000 39.950000
    3099 A       3099       Ar      Ar      Ar      0.000000 39.950000
    3100 A       3100       Ar      Ar      Ar      0.000000 39.950000
    3101 A       3101       Ar      Ar      Ar      0.000000 39.950000
    3102 A       3102       Ar      Ar      Ar      0.000000 39.950000
    3103 A       3103       Ar      Ar      Ar      0.000000 39.950000
    3104 A       3104       Ar      Ar      Ar      0.000000 39.950000
    3105 A       3105       Ar      Ar      Ar      0.000000 39.950000
    3106 A       3106       Ar      Ar      Ar      0.000000 39.950000
    3107 A       3107       Ar      Ar      Ar      0.000000 39.950000
    3108 A       3108       Ar      Ar      Ar      0.000000 39.950000
    3109 A       3109       Ar      Ar      Ar      0.000000 39.950000
    3110 A       3110       Ar      Ar      Ar      0.000000 39.950000
    3111 A       3111       Ar      Ar      Ar      0.000000 39.950000
    3112 A       3112       Ar      Ar      Ar      0.000000 39.950000
    3113 A       3113       Ar      Ar      Ar      0.000000 39.950000
    3114 A       3114       Ar      Ar      Ar      0.000000 39.950000
    3115 A       3115       Ar      Ar      Ar      0.000000 39.950000
    3116 A       3116       Ar      Ar      Ar      0.000000 39.950000
    3117 A       3117       Ar      Ar      Ar      0.000000 39.950000
    3118 A       3118       Ar      Ar      Ar      0.000000 39.950000
    3119 A       3119       Ar      Ar      Ar      0.000000 39.950000
    3120 A       3120       Ar      Ar      Ar      0.000000 39.950000
    3121 A       3121       Ar      Ar      Ar      0.000000 39.950000
    3122 A       3122       Ar      Ar      Ar      0.000000 39.950000
    3123 A       3123       Ar      Ar      Ar      0.000000 39.950000
    3124 A       3124       Ar      Ar      Ar      0.000000 39.950000
    3125 A       3125       Ar      Ar      Ar      0.000000 39.950000
    3126 A       3126       Ar      Ar      Ar      0.000000 39.950000
    3127 A       3127       Ar      Ar      Ar      0.000000 39.950000
    3128 A       3128       Ar      Ar      Ar      0.000000 39.950000
    3129 A       3129       Ar      Ar      Ar      0.000000 39.950000
    3130 A       3130       Ar      Ar      Ar      0.000000 39.950000
    3131 A       3131       Ar      Ar      Ar      0.000000 39.950000
    3132 A       3132       Ar      Ar      Ar      0.000000 39.950000
    3133 A       3133       Ar      Ar      Ar      0.000000 39.950000
    3134 A       3134       Ar      Ar      Ar      0.000000 39.950000
    3135 A       3135       Ar      Ar      Ar      0.000000 39.950000
    3136 A       3136       Ar      Ar      Ar      0.000000 39.950000
    3137 A       3137       Ar      Ar      Ar      0.000000 39.950000
    3138 A       3138       Ar      Ar      Ar      0.000000 39.950000
    3139 A       3139       Ar      Ar      Ar      0.000000 39.950000
    3140 A       3140       Ar      Ar      Ar      0.000000 39.950000
    3141 A       3141       Ar      Ar      Ar      0.000000 39.950000
    3142 A       3142       Ar      Ar      Ar      0.000000 39.950000
    3143 A       3143       Ar      Ar      Ar      0.000000 39.950000
    3144 A       3144       Ar      Ar      Ar      0.000000 39.950000
    3145 A       3145       Ar      Ar      Ar      0.000000 39.950000
    3146 A       3146       Ar      Ar      Ar      0.000000 39.950000
    3147 A       3147       Ar      Ar      Ar      0.000000 39.950000
    3148 A       3148       Ar      Ar      Ar      0.000000 39.950000
    3149 A       3149       Ar      Ar      Ar      0.000000 39.950000
    3150 A       3150       Ar      Ar      Ar      0.000000 39.950000
    3151 A       3151       Ar      Ar      Ar      0.000000 39.950000
    3152 A       3152       Ar      Ar      Ar      0.000000 39.950000
    3153 A       3153       Ar      Ar      Ar      0.000000 39.950000
    3154 A       3154       Ar      Ar      Ar      0.000000 39.950000
    3155 A       3155       Ar      Ar      Ar      0.000000 39.950000
    3156 A       3156       Ar      Ar      Ar      0.000000 39.950000
    3157 A       3157       Ar      Ar      Ar      0.000000 39.950000
    3158 A       3158       Ar      Ar      Ar      0.000000 39.950000
    3159 A       3159       Ar      Ar      Ar      0.000000 39.950000
    3160 A       3160       Ar      Ar      Ar      0.000000 39.950000
    3161 A       3161       Ar      Ar      Ar      0.000000 39.950000
    3162 A       3162       Ar      Ar      Ar      0.000000 39.950000
    3163 A       3163       Ar      Ar      Ar      0.000000 39.950000
    3164 A       3164       Ar      Ar      Ar      0.000000 39.950000
    3165 A       3165       Ar      Ar      Ar      0.000000 39.950000
    3166 A       3166       Ar      Ar      Ar      0.000000 39.950000
    3167 A       3167       Ar      Ar      Ar      0.000000 39.950000
    3168 A       3168       Ar      Ar      Ar      0.000000 39.950000
    3169 A       3169       Ar      Ar      Ar      0.000000 39.950000
    3170 A       3170       Ar      Ar      Ar      0.000000 39.950000
    3171 A       3171       Ar      Ar      Ar      0.000000 39.950000
    3172 A       3172       Ar      Ar      Ar      0.000000 39.950000
    3173 A       3173       Ar      Ar      Ar      0.000000 39.950000
    3174 A       3174       Ar      Ar      Ar      0.000000 39.950000
    3175 A       3175       Ar      Ar      Ar      0.000000 39.950000
    3176 A       3176       Ar      Ar      Ar      0.000000 39.950000
    3177 A       3177       Ar      Ar      Ar      0.000000 39.950000
    3178 A       3178       Ar      Ar      Ar      0.000000 39.950000
    3179 A       3179       Ar      Ar      Ar      0.000000 39.950000
    3180 A       3180       Ar      Ar      Ar      0.000000 39.950000
    3181 A       3181       Ar      Ar      Ar      0.000000 39.950000
    3182 A       3182       Ar      Ar      Ar      0.000000 39.950000
    3183 A       3183       Ar      Ar      Ar      0.000000 39.950000
    3184 A       3184       Ar      Ar      Ar      0.000000 39.950000
    3185 A       3185       Ar      Ar      Ar      0.000000 39.950000
    3186 A       3186       Ar      Ar      Ar      0.000000 39.950000
    3187 A       3187       Ar      Ar      Ar      0.000000 39.950000
    3188 A       3188       Ar      Ar      Ar      0.000000 39.950000
    3189 A       3189       Ar      Ar      Ar      0.000000 39.950000
    3190 A       3190       Ar      Ar      Ar      0.000000 39.950000
    3191 A       3191       Ar      Ar      Ar      0.000000 39.950000
    3192 A       3192       Ar      Ar      Ar      0.000000 39.950000
    3193 A       3193       Ar      Ar      Ar      0.000000 39.950000
    3194 A       3194       Ar      Ar      Ar      0.000000 39.950000
    3195 A       3195       Ar      Ar      Ar      0.000000 39.950000
    3196 A       3196       Ar      Ar      Ar      0.000000 39.950000
    3197 A       3197       Ar      Ar      Ar      0.000000 39.950000
    3198 A       3198       Ar      Ar      Ar      0.000000 39.950000
    3199 A       3199       Ar      Ar      Ar      0.000000 39.950000
    3200 A       3200       Ar      Ar      Ar      0.000000 39.950000
    3201 A       3201       Ar      Ar      Ar      0.000000 39.950000
    3202 A       3202       Ar      Ar      Ar      0.000000 39.950000
    3203 A       3203       Ar      Ar      Ar      0.000000 39.950000
    3204 A       3204       Ar      Ar      Ar      0.000000 39.950000
    3205 A       3205       Ar      Ar      Ar      0.000000 39.950000
    3206 A       3206       Ar      Ar      Ar      0.000000 39.950000
    3207 A       3207       Ar      Ar      Ar      0.000000 39.950000
    3208 A       3208       Ar      Ar      Ar      0.000000 39.950000
    3209 A       3209       Ar      Ar      Ar      0.000000 39.950000
    3210 A       3210       Ar      Ar      Ar      0.000000 39.950000
    3211 A       3211       Ar      Ar      Ar      0.000000 39.950000
    3212 A       3212       Ar      Ar      Ar      0.000000 39.950000
    3213 A       3213       Ar      Ar      Ar      0.000000 39.950000
    3214 A       3214       Ar      Ar      Ar      0.000000 39.950000
    3215 A       3215       Ar      Ar      Ar      0.000000 39.950000
    3216 A       3216       Ar      Ar      Ar      0.000000 39.950000
    3217 A       3217       Ar      Ar      Ar      0.000000 39.950000
    3218 A       3218       Ar      Ar      Ar      0.000000 39.950000
    3219 A       3219       Ar      Ar      Ar      0.000000 39.950000
    3220 A       3220       Ar      Ar      Ar      0.000000 39.950000
    3221 A       3221       Ar      Ar      Ar      0.000000 39.950000
    3222 A       3222       Ar      Ar      Ar      0.000000 39.950000
    3223 A       3223       Ar      Ar      Ar      0.000000 39.950000
    3224 A       3224       Ar      Ar      Ar      0.000000 39.950000
    3225 A       3225       Ar      Ar      Ar      0.000000 39.950000
    3226 A       3226       Ar      Ar      Ar      0.000000 39.950000
    3227 A       3227       Ar      Ar      Ar      0.000000 39.950000
    3228 A       3228       Ar      Ar      Ar      0.000000 39.950000
    3229 A       3229       Ar      Ar      Ar      0.000000 39.950000
    3230 A       3230       Ar      Ar      Ar      0.000000 39.950000
    3231 A       3231       Ar      Ar      Ar      0.000000 39.950000
    3232 A       3232       Ar      Ar      Ar      0.000000 39.950000
    3233 A       3233       Ar      Ar      Ar      0.000000 39.950000
    3234 A       3234       Ar      Ar      Ar      0.000000 39.950000
    3235 A       3235       Ar      Ar      Ar      0.000000 39.950000
    3236 A       3236       Ar      Ar      Ar      0.000000 39.950000
    3237 A       3237       Ar      Ar      Ar      0.000000 39.950000
    3238 A       3238       Ar      Ar      Ar      0.000000 39.950000
    3239 A       3239       Ar      Ar      Ar      0.000000 39.950000
    3240 A       3240       Ar      Ar      Ar      0.000000 39.950000
    3241 A       3241       Ar      Ar      Ar      0.000000 39.950000
    3242 A       3242       Ar      Ar      Ar      0.000000 39.950000
    3243 A       3243       Ar      Ar      Ar      0.000000 39.950000
    3244 A       3244       Ar      Ar      Ar      0.000000 39.950000
    3245 A       3245       Ar      Ar      Ar      0.000000 39.950000
    3246 A       3246       Ar      Ar      Ar      0.000000 39.950000
    3247 A       3247       Ar      Ar      Ar      0.000000 39.950000
    3248 A       3248       Ar      Ar      Ar      0.000000 39.950000
    3249 A       3249       Ar      Ar      Ar      0.000000 39.950000
    3250 A       3250       Ar      Ar      Ar      0.000000 39.950000
    3251 A       3251       Ar      Ar      Ar      0.000000 39.950000
    3252 A       3252       Ar      Ar      Ar      0.000000 39.950000
    3253 A       3253       Ar      Ar      Ar      0.000000 39.950000
    3254 A       3254       Ar      Ar      Ar      0.000000 39.950000
    3255 A       3255       Ar      Ar      Ar      0.000000 39.950000
    3256 A       3256       Ar      Ar      Ar      0.000000 39.950000
    3257 A       3257       Ar      Ar      Ar      0.000000 39.950000
    3258 A       3258       Ar      Ar      Ar      0.000000 39.950000
    3259 A       3259       Ar      Ar      Ar      0.000000 39.950000
    3260 A       3260       Ar      Ar      Ar      0.000000 39.950000
    3261 A       3261       Ar      Ar      Ar      0.000000 39.950000
    3262 A       3262       Ar      Ar      Ar      0.000000 39.950000
    3263 A       3263       Ar      Ar      Ar      0.000000 39.950000
    3264 A       3264       Ar      Ar      Ar      0.000000 39.950000
    3265 A       3265       Ar      Ar      Ar      0.000000 39.950000
    3266 A       3266       Ar      Ar      Ar      0.000000 39.950000
    3267 A       3267       Ar      Ar      Ar      0.000000 39.950000
    3268 A       3268       Ar      Ar      Ar      0.000000 39.950000
    3269 A       3269       Ar      Ar      Ar      0.000000 39.950000
    3270 A       3270       Ar      Ar      Ar      0.000000 39.950000
    3271 A       3271       Ar      Ar      Ar      0.000000 39.950000
    3272 A       3272       Ar      Ar      Ar      0.000000 39.950000
    3273 A       3273       Ar      Ar      Ar      0.000000 39.950000
    3274 A       3274       Ar      Ar      Ar      0.000000 39.950000
    3275 A       3275       Ar      Ar      Ar      0.000000 39.950000
    3276 A       3276       Ar      Ar      Ar      0.000000 39.950000
    3277 A       3277       Ar      Ar      Ar      0.000000 39.950000
    3278 A       3278       Ar      Ar      Ar      0.000000 39.950000
    3279 A       3279       Ar      Ar      Ar      0.000000 39.950000
    3280 A       3280       Ar      Ar      Ar      0.000000 39.950000
    3281 A       3281       Ar      Ar      Ar      0.000000 39.950000
    3282 A       3282       Ar      Ar      Ar      0.000000 39.950000
    3283 A       3283       Ar      Ar      Ar      0.000000 39.950000
    3284 A       3284       Ar      Ar      Ar      0.000000 39.950000
    3285 A       3285       Ar      Ar      Ar      0.000000 39.950000
    3286 A       3286       Ar      Ar      Ar      0.000000 39.950000
    3287 A       3287       Ar      Ar      Ar      0.000000 39.950000
    3288 A       3288       Ar      Ar      Ar      0.000000 39.950000
    3289 A       3289       Ar      Ar      Ar      0.000000 39.950000
    3290 A       3290       Ar      Ar      Ar      0.000000 39.950000
    3291 A       3291       Ar      Ar      Ar      0.000000 39.950000
    3292 A       3292       Ar      Ar      Ar      0.000000 39.950000
    3293 A       3293       Ar      Ar      Ar      0.000000 39.950000
    3294 A       3294       Ar      Ar      Ar      0.000000 39.950000
    3295 A       3295       Ar      Ar      Ar      0.000000 39.950000
    3296 A       3296       Ar      Ar      Ar      0.000000 39.950000
    3297 A       3297       Ar      Ar      Ar      0.000000 39.950000
    3298 A       3298       Ar      Ar      Ar      0.000000 39.950000
    3299 A       3299       Ar      Ar      Ar      0.000000 39.950000
    3300 A       3300       Ar      Ar      Ar      0.000000 39.950000
    3301 A       3301       Ar      Ar      Ar      0.000000 39.950000
    3302 A       3302       Ar      Ar      Ar      0.000000 39.950000
    3303 A       3303       Ar      Ar      Ar      0.000000 39.950000
    3304 A       3304       Ar      Ar      Ar      0.000000 39.950000
    3305 A       3305       Ar      Ar      Ar      0.000000 39.950000
    3306 A       3306       Ar      Ar      Ar      0.000000 39.950000
    3307 A       3307       Ar      Ar      Ar      0.000000 39.950000
    3308 A       3308       Ar      Ar      Ar      0.000000 39.950000
    3309 A       3309       Ar      Ar      Ar      0.000000 39.950000
    3310 A       3310       Ar      Ar      Ar      0.000000 39.950000
    3311 A       3311       Ar      Ar      Ar      0.000000 39.950000
    3312 A       3312       Ar      Ar      Ar      0.000000 39.950000
    3313 A       3313       Ar      Ar      Ar      0.000000 39.950000
    3314 A       3314       Ar      Ar      Ar      0.000000 39.950000
    3315 A       3315       Ar      Ar      Ar      0.000000 39.950000
    3316 A       3316       Ar      Ar      Ar      0.000000 39.950000
    3317 A       3317       Ar      Ar      Ar      0.000000 39.950000
    3318 A       3318       Ar      Ar      Ar      0.000000 39.950000
    3319 A       3319       Ar      Ar      Ar      0.000000 39.950000
    3320 A       3320       Ar      Ar      Ar      0.000000 39.950000
    3321 A       3321       Ar      Ar      Ar      0.000000 39.950000
    3322 A       3322       Ar      Ar      Ar      0.000000 39.950000
    3323 A       3323       Ar      Ar      Ar      0.000000 39.950000
    3324 A       3324       Ar      Ar      Ar      0.000000 39.950000
    3325 A       3325       Ar      Ar      Ar      0.000000 39.950000
    3326 A       3326       Ar      Ar      Ar      0.000000 39.950000
    3327 A       3327       Ar      Ar      Ar      0.000000 39.950000
    3328 A       3328       Ar      Ar      Ar      0.000000 39.950000
    3329 A       3329       Ar      Ar      Ar      0.000000 39.950000
    3330 A       3330       Ar      Ar      Ar      0.000000 39.950000
    3331 A       3331       Ar      Ar      Ar      0.000000 39.950000
    3332 A       3332       Ar      Ar      Ar      0.000000 39.950000
    3333 A       3333       Ar      Ar      Ar      0.000000 39.950000
    3334 A       3334       Ar      Ar      Ar      0.000000 39.950000
    3335 A       3335       Ar      Ar      Ar      0.000000 39.950000
    3336 A       3336       Ar      Ar      Ar      0.000000 39.950000
    3337 A       3337       Ar      Ar      Ar      0.000000 39.950000
    3338 A       3338       Ar      Ar      Ar      0.000000 39.950000
    3339 A       3339       Ar      Ar      Ar      0.000000 39.950000
    3340 A       3340       Ar      Ar      Ar      0.000000 39.950000
    3341 A       3341       Ar      Ar      Ar      0.000000 39.950000
    3342 A       3342       Ar      Ar      Ar      0.000000 39.950000
    3343 A       3343       Ar      Ar      Ar      0.000000 39.950000
    3344 A       3344       Ar      Ar      Ar      0.000000 39.950000
    3345 A       3345       Ar      Ar      Ar      0.000000 39.950000
    3346 A       3346       Ar      Ar      Ar      0.000000 39.950000
    3347 A       3347       Ar      Ar      Ar      0.000000 39.950000
    3348 A       3348       Ar      Ar      Ar      0.000000 39.950000
    3349 A       3349       Ar      Ar      Ar      0.000000 39.950000
    3350 A       3350       Ar      Ar      Ar      0.000000 39.950000
    3351 A       3351       Ar      Ar      Ar      0.000000 39.950000
    3352 A       3352       Ar      Ar      Ar      0.000000 39.950000
    3353 A       3353       Ar      Ar      Ar      0.000000 39.950000
    3354 A       3354       Ar      Ar      Ar      0.000000 39.950000
    3355 A       3355       Ar      Ar      Ar      0.000000 39.950000
    3356 A       3356       Ar      Ar      Ar      0.000000 39.950000
    3357 A       3357       Ar      Ar      Ar      0.000000 39.950000
    3358 A       3358       Ar      Ar      Ar      0.000000 39.950000
    3359 A       3359       Ar      Ar      Ar      0.000000 39.950000
    3360 A       3360       Ar      Ar      Ar      0.000000 39.950000
    3361 A       3361       Ar      Ar      Ar      0.000000 39.950000
    3362 A       3362       Ar      Ar      Ar      0.000000 39.950000
    3363 A       3363       Ar      Ar      Ar      0.000000 39.950000
    3364 A       3364       Ar      Ar      Ar      0.000000 39.950000
    3365 A       3365       Ar      Ar      Ar      0.000000 39.950000
    3366 A       3366       Ar      Ar      Ar      0.000000 39.950000
    3367 A       3367       Ar      Ar      Ar      0.000000 39.950000
    3368 A       3368       Ar      Ar      Ar      0.000000 39.950000
    3369 A       3369       Ar      Ar      Ar      0.000000 39.950000
    3370 A       3370       Ar      Ar      Ar      0.000000 39.950000
    3371 A       3371       Ar      Ar      Ar      0.000000 39.950000
    3372 A       3372       Ar      Ar      Ar      0.000000 39.950000
    3373 A       3373       Ar      Ar      Ar      0.000000 39.950000
    3374 A       3374       Ar      Ar      Ar      0.000000 39.950000
    3375 A       3375       Ar      Ar      Ar      0.000000 39.950000
    3376 A       3376       Ar      Ar      Ar      0.000000 39.950000
    3377 A       3377       Ar      Ar      Ar      0.000000 39.950000
    3378 A       3378       Ar      Ar      Ar      0.000000 39.950000
    3379 A       3379       Ar      Ar      Ar      0.000000 39.950000
    3380 A       3380       Ar      Ar      Ar      0.000000 39.950000
    3381 A       3381       Ar      Ar      Ar      0.000000 39.950000
    3382 A       3382       Ar      Ar      Ar      0.000000 39.950000
    3383 A       3383       Ar      Ar      Ar      0.000000 39.950000
    3384 A       3384       Ar      Ar      Ar      0.000000 39.950000
    3385 A       3385       Ar      Ar      Ar      0.000000 39.950000
    3386 A       3386       Ar      Ar      Ar      0.000000 39.950000
    3387 A       3387       Ar      Ar      Ar      0.000000 39.950000
    3388 A       3388       Ar      Ar      Ar      0.000000 39.950000
    3389 A       3389       Ar      Ar      Ar      0.000000 39.950000
    3390 A       3390       Ar      Ar      Ar      0.000000 39.950000
    3391 A       3391       Ar      Ar      Ar      0.000000 39.950000
    3392 A       3392       Ar      Ar      Ar      0.000000 39.950000
    3393 A       3393       Ar      Ar      Ar      0.000000 39.950000
    3394 A       3394       Ar      Ar      Ar      0.000000 39.950000
    3395 A       3395       Ar      Ar      Ar      0.000000 39.950000
    3396 A       3396       Ar      Ar      Ar      0.000000 39.950000
    3397 A       3397       Ar      Ar      Ar      0.000000 39.950000
    3398 A       3398       Ar      Ar      Ar      0.000000 39.950000
    3399 A       3399       Ar      Ar      Ar      0.000000 39.950000
    3400 A       3400       Ar      Ar      Ar      0.000000 39.950000
    3401 A       3401       Ar      Ar      Ar      0.000000 39.950000
    3402 A       3402       Ar      Ar      Ar      0.000000 39.950000
    3403 A       3403       Ar      Ar      Ar      0.000000 39.950000
    3404 A       3404       Ar      Ar      Ar      0.000000 39.950000
    3405 A       3405       Ar      Ar      Ar      0.000000 39.950000
    3406 A       3406       Ar      Ar      Ar      0.000000 39.950000
    3407 A       3407       Ar      Ar      Ar      0.000000 39.950000
    3408 A       3408       Ar      Ar      Ar      0.000000 39.950000
    3409 A       3409       Ar      Ar      Ar      0.000000 39.950000
    3410 A       3410       Ar      Ar      Ar      0.000000 39.950000
    3411 A       3411       Ar      Ar      Ar      0.000000 39.950000
    3412 A       3412       Ar      Ar      Ar      0.000000 39.950000
    3413 A       3413       Ar      Ar      Ar      0.000000 39.950000
    3414 A       3414       Ar      Ar      Ar      0.000000 39.950000
    3415 A       3415       Ar      Ar      Ar      0.000000 39.950000
    3416 A       3416       Ar      Ar      Ar      0.000000 39.950000
    3417 A       3417       Ar      Ar      Ar      0.000000 39.950000
    3418 A       3418       Ar      Ar      Ar      0.000000 39.950000
    3419 A       3419       Ar      Ar      Ar      0.000000 39.950000
    3420 A       3420       Ar      Ar      Ar      0.000000 39.950000
    3421 A       3421       Ar      Ar      Ar      0.000000 39.950000
    3422 A       3422       Ar      Ar      Ar      0.000000 39.950000
    3423 A       3423       Ar      Ar      Ar      0.000000 39.950000
    3424 A       3424       Ar      Ar      Ar      0.000000 39.950000
    3425 A       3425       Ar      Ar      Ar      0.000000 39.950000
    3426 A       3426       Ar      Ar      Ar      0.000000 39.950000
    3427 A       3427       Ar      Ar      Ar      0.000000 39.950000
    3428 A       3428       Ar      Ar      Ar      0.000000 39.950000
    3429 A       3429       Ar      Ar      Ar      0.000000 39.950000
    3430 A       3430       Ar      Ar      Ar      0.000000 39.950000
    3431 A       3431       Ar      Ar      Ar      0.000000 39.950000
    3432 A       3432       Ar      Ar      Ar      0.000000 39.950000
    3433 A       3433       Ar      Ar      Ar      0.000000 39.950000
    3434 A       3434       Ar      Ar      Ar      0.000000 39.950000
    3435 A       3435       Ar      Ar      Ar      0.000000 39.950000
    3436 A       3436       Ar      Ar      Ar      0.000000 39.950000
    3437 A       3437       Ar      Ar      Ar      0.000000 39.950000
    3438 A       3438       Ar      Ar      Ar      0.000000 39.950000
    3439 A       3439       Ar      Ar      Ar      0.000000 39.950000
    3440 A       3440       Ar      Ar      Ar      0.000000 39.950000
    3441 A       3441       Ar      Ar      Ar      0.000000 39.950000
    3442 A       3442       Ar      Ar      Ar      0.000000 39.950000
    3443 A       3443       Ar      Ar      Ar      0.000000 39.950000
    3444 A       3444       Ar      Ar      Ar      0.000000 39.950000
    3445 A       3445       Ar      Ar      Ar      0.000000 39.950000
    3446 A       3446       Ar      Ar      Ar      0.000000 39.950000
    3447 A       3447       Ar      Ar      Ar      0.000000 39.950000
    3448 A       3448       Ar      Ar      Ar      0.000000 39.950000
    3449 A       3449       Ar      Ar      Ar      0.000000 39.950000
    3450 A       3450       Ar      Ar      Ar      0.000000 39.950000
    3451 A       3451       Ar      Ar      Ar      0.000000 39.950000
    3452 A       3452       Ar      Ar      Ar      0.000000 39.950000
    3453 A       3453       Ar      Ar      Ar      0.000000 39.950000
    3454 A       3454       Ar      Ar      Ar      0.000000 39.950000
    3455 A       3455       Ar      Ar      Ar      0.000000 39.950000
    3456 A       3456       Ar      Ar      Ar      0.000000 39.950000
    3457 A       3457       Ar      Ar      Ar      0.000000 39.950000
    3458 A       3458       Ar      Ar      Ar      0.000000 39.950000
    3459 A       3459       Ar      Ar      Ar      0.000000 39.950000
    3460 A       3460       Ar      Ar      Ar      0.000000 39.950000
    3461 A       3461       Ar      Ar      Ar      0.000000 39.950000
    3462 A       3462       Ar      Ar      Ar      0.000000 39.950000
    3463 A       3463       Ar      Ar      Ar      0.000000 39.950000
    3464 A       3464       Ar      Ar      Ar      0.000000 39.950000
    3465 A       3465       Ar      Ar      Ar      0.000000 39.950000
    3466 A       3466       Ar      Ar      Ar      0.000000 39.950000
    3467 A       3467       Ar      Ar      Ar      0.000000 39.950000
    3468 A       3468       Ar      Ar      Ar      0.000000 39.950000
    3469 A       3469       Ar      Ar      Ar      0.000000 39.950000
    3470 A       3470       Ar      Ar      Ar      0.000000 39.950000
    3471 A       3471       Ar      Ar      Ar      0.000000 39.950000
    3472 A       3472       Ar      Ar      Ar      0.000000 39.950000
    3473 A       3473       Ar      Ar      Ar      0.000000 39.950000
    3474 A       3474       Ar      Ar      Ar      0.000000 39.950000
    3475 A       3475       Ar      Ar      Ar      0.000000 39.950000
    3476 A       3476       Ar      Ar      Ar      0.000000 39.950000
    3477 A       3477       Ar      Ar      Ar      0.000000 39.950000
    3478 A       3478       Ar      Ar      Ar      0.000000 39.950000
    3479 A       3479       Ar      Ar      Ar      0.000000 39.950000
    3480 A       3480       Ar      Ar      Ar      0.000000 39.950000
    3481 A       3481       Ar      Ar      Ar      0.000000 39.950000
    3482 A       3482       Ar      Ar      Ar      0.000000 39.950000
    3483 A       3483       Ar      Ar      Ar      0.000000 39.950000
    3484 A       3484       Ar      Ar      Ar      0.000000 39.950000
    3485 A       3485       Ar      Ar      Ar      0.000000 39.950000
    3486 A       3486       Ar      Ar      Ar      0.000000 39.950000
    3487 A       3487       Ar      Ar      Ar      0.000000 39.950000
    3488 A       3488       Ar      Ar      Ar      0.000000 39.950000
    3489 A       3489       Ar      Ar      Ar      0.000000 39.950000
    3490 A       3490       Ar      Ar      Ar      0.000000 39.950000
    3491 A       3491       Ar      Ar      Ar      0.000000 39.950000
    3492 A       3492       Ar      Ar      Ar      0.000000 39.950000
    3493 A       3493       Ar      Ar      Ar      0.000000 39.950000
    3494 A       3494       Ar      Ar      Ar      0.000000 39.950000
    3495 A       3495       Ar      Ar      Ar      0.000000 39.950000
    3496 A       3496       Ar      Ar      Ar      0.000000 39.950000
    3497 A       3497       Ar      Ar      Ar      0.000000 39.950000
    3498 A       3498       Ar      Ar      Ar      0.000000 39.950000
    3499 A       3499       Ar      Ar      Ar      0.000000 39.950000
    3500 A       3500       Ar      Ar      Ar      0.000000 39.950000
    3501 A       3501       Ar      Ar      Ar      0.000000 39.950000
    3502 A       3502       Ar      Ar      Ar      0.000000 39.950000
    3503 A       3503       Ar      Ar      Ar      0.000000 39.950000
    3504 A       3504       Ar      Ar      Ar      0.000000 39.950000
    3505 A       3505       Ar      Ar      Ar      0.000000 39.950000
    3506 A       3506       Ar      Ar      Ar      0.000000 39.950000
    3507 A       3507       Ar      Ar      Ar      0.000000 39.950000
    3508 A       3508       Ar      Ar      Ar      0.000000 39.950000
    3509 A       3509       Ar      Ar      Ar      0.000000 39.950000
    3510 A       3510       Ar      Ar      Ar      0.000000 39.950000
    3511 A       3511       Ar      Ar      Ar      0.000000 39.950000
    3512 A       3512       Ar      Ar      Ar      0.000000 39.950000
    3513 A       3513       Ar      Ar      Ar      0.000000 39.950000
    3514 A       3514       Ar      Ar      Ar      0.000000 39.950000
    3515 A       3515       Ar      Ar      Ar      0.000000 39.950000
    3516 A       3516       Ar      Ar      Ar      0.000000 39.950000
    3517 A       3517       Ar      Ar      Ar      0.000000 39.950000
    3518 A       3518       Ar      Ar      Ar      0.000000 39.950000
    3519 A       3519       Ar      Ar      Ar      0.000000 39.950000
    3520 A       3520       Ar      Ar      Ar      0.000000 39.950000
    3521 A       3521       Ar      Ar      Ar      0.000000 39.950000
    3522 A       3522       Ar      Ar      Ar      0.000000 39.950000
    3523 A       3523       Ar      Ar      Ar      0.000000 39.950000
    3524 A       3524       Ar      Ar      Ar      0.000000 39.950000
    3525 A       3525       Ar      Ar      Ar      0.000000 39.950000
    3526 A       3526       Ar      Ar      Ar      0.000000 39.950000
    3527 A       3527       Ar      Ar      Ar      0.000000 39.950000
    3528 A       3528       Ar      Ar      Ar      0.000000 39.950000
    3529 A       3529       Ar      Ar      Ar      0.000000 39.950000
    3530 A       3530       Ar      Ar      Ar      0.000000 39.950000
    3531 A       3531       Ar      Ar      Ar      0.000000 39.950000
    3532 A       3532       Ar      Ar      Ar      0.000000 39.950000
    3533 A       3533       Ar      Ar      Ar      0.000000 39.950000
    3534 A       3534       Ar      Ar      Ar      0.000000 39.950000
    3535 A       3535       Ar      Ar      Ar      0.000000 39.950000
    3536 A       3536       Ar      Ar      Ar      0.000000 39.950000
    3537 A       3537       Ar      Ar      Ar      0.000000 39.950000
    3538 A       3538       Ar      Ar      Ar      0.000000 39.950000
    3539 A       3539       Ar      Ar      Ar      0.000000 39.950000
    3540 A       3540       Ar      Ar      Ar      0.000000 39.950000
    3541 A       3541       Ar      Ar      Ar      0.000000 39.950000
    3542 A       3542       Ar      Ar      Ar      0.000000 39.950000
    3543 A       3543       Ar      Ar      Ar      0.000000 39.950000
    3544 A       3544       Ar      Ar      Ar      0.000000 39.950000
    3545 A       3545       Ar      Ar      Ar      0.000000 39.950000
    3546 A       3546       Ar      Ar      Ar      0.000000 39.950000
    3547 A       3547       Ar      Ar      Ar      0.000000 39.950000
    3548 A       3548       Ar      Ar      Ar      0.000000 39.950000
    3549 A       3549       Ar      Ar      Ar      0.000000 39.950000
    3550 A       3550       Ar      Ar      Ar      0.000000 39.950000
    3551 A       3551       Ar      Ar      Ar      0.000000 39.950000
    3552 A       3552       Ar      Ar      Ar      0.000000 39.950000
    3553 A       3553       Ar      Ar      Ar      0.000000 39.950000
    3554 A       3554       Ar      Ar      Ar      0.000000 39.950000
    3555 A       3555       Ar      Ar      Ar      0.000000 39.950000
    3556 A       3556       Ar      Ar      Ar      0.000000 39.950000
    3557 A       3557       Ar      Ar      Ar      0.000000 39.950000
    3558 A       3558       Ar      Ar      Ar      0.000000 39.950000
    3559 A       3559       Ar      Ar      Ar      0.000000 39.950000
    3560 A       3560       Ar      Ar      Ar      0.000000 39.950000
    3561 A       3561       Ar      Ar      Ar      0.000000 39.950000
    3562 A       3562       Ar      Ar      Ar      0.000000 39.950000
    3563 A       3563       Ar      Ar      Ar      0.000000 39.950000
    3564 A       3564       Ar      Ar      Ar      0.000000 39.950000
    3565 A       3565       Ar      Ar      Ar      0.000000 39.950000
    3566 A       3566       Ar      Ar      Ar      0.000000 39.950000
    3567 A       3567       Ar      Ar      Ar      0.000000 39.950000
    3568 A       3568       Ar      Ar      Ar      0.000000 39.950000
    3569 A       3569       Ar      Ar      Ar      0.000000 39.950000
    3570 A       3570       Ar      Ar      Ar      0.000000 39.950000
    3571 A       3571       Ar      Ar      Ar      0.000000 39.950000
    3572 A       3572       Ar      Ar      Ar      0.000000 39.950000
    3573 A       3573       Ar      Ar      Ar      0.000000 39.950000
    3574 A       3574       Ar      Ar      Ar      0.000000 39.950000
    3575 A       3575       Ar      Ar      Ar      0.000000 39.950000
    3576 A       3576       Ar      Ar      Ar      0.000000 39.950000
    3577 A       3577       Ar      Ar      Ar      0.000000 39.950000
    3578 A       3578       Ar      Ar      Ar      0.000000 39.950000
    3579 A       3579       Ar      Ar      Ar      0.000000 39.950000
    3580 A       3580       Ar      Ar      Ar      0.000000 39.950000
    3581 A       3581       Ar      Ar      Ar      0.000000 39.950000
    3582 A       3582       Ar      Ar      Ar      0.000000 39.950000
    3583 A       3583       Ar      Ar      Ar      0.000000 39.950000
    3584 A       3584       Ar      Ar      Ar      0.000000 39.950000
    3585 A       3585       Ar      Ar      Ar      0.000000 39.950000
    3586 A       3586       Ar      Ar      Ar      0.000000 39.950000
    3587 A       3587       Ar      Ar      Ar      0.000000 39.950000
    3588 A       3588       Ar      Ar      Ar      0.000000 39.950000
    3589 A       3589       Ar      Ar      Ar      0.000000 39.950000
    3590 A       3590       Ar      Ar      Ar      0.000000 39.950000
    3591 A       3591       Ar      Ar      Ar      0.000000 39.950000
    3592 A       3592       Ar      Ar      Ar      0.000000 39.950000
    3593 A       3593       Ar      Ar      Ar      0.000000 39.950000
    3594 A       3594       Ar      Ar      Ar      0.000000 39.950000
    3595 A       3595       Ar      Ar      Ar      0.000000 39.950000
    3596 A       3596       Ar      Ar      Ar      0.000000 39.950000
    3597 A       3597       Ar      Ar      Ar      0.000000 39.950000
    3598 A       3598       Ar      Ar      Ar      0.000000 39.950000
    3599 A       3599       Ar      Ar      Ar      0.000000 39.950000
    3600 A       3600       Ar      Ar      Ar      0.000000 39.950000
    3601 A       3601       Ar      Ar      Ar      0.000000 39.950000
    3602 A       3602       Ar      Ar      Ar      0.000000 39.950000
    3603 A       3603       Ar      Ar      Ar      0.000000 39.950000
    3604 A       3604       Ar      Ar      Ar      0.000000 39.950000
    3605 A       3605       Ar      Ar      Ar      0.000000 39.950000
    3606 A       3606       Ar      Ar      Ar      0.000000 39.950000
    3607 A       3607       Ar      Ar      Ar      0.000000 39.950000
    3608 A       3608       Ar      Ar      Ar      0.000000 39.950000
    3609 A       3609       Ar      Ar      Ar      0.000000 39.950000
    3610 A       3610       Ar      Ar      Ar      0.000000 39.950000
    3611 A       3611       Ar      Ar      Ar      0.000000 39.950000
    3612 A       3612       Ar      Ar      Ar      0.000000 39.950000
    3613 A       3613       Ar      Ar      Ar      0.000000 39.950000
    3614 A       3614       Ar      Ar      Ar      0.000000 39.950000
    3615 A       3615       Ar      Ar      Ar      0.000000 39.950000
    3616 A       3616       Ar      Ar      Ar      0.000000 39.950000
    3617 A       3617       Ar      Ar      Ar      0.000000 39.950000
    3618 A       3618       Ar      Ar      Ar      0.000000 39.950000
    3619 A       3619       Ar      Ar      Ar      0.000000 39.950000
    3620 A       3620       Ar      Ar      Ar      0.000000 39.950000
    3621 A       3621       Ar      Ar      Ar      0.000000 39.950000
    3622 A       3622       Ar      Ar      Ar      0.000000 39.950000
    3623 A       3623       Ar      Ar      Ar      0.000000 39.950000
    3624 A       3624       Ar      Ar      Ar      0.000000 39.950000
    3625 A       3625       Ar      Ar      Ar      0.000000 39.950000
    3626 A       3626       Ar      Ar      Ar      0.000000 39.950000
    3627 A       3627       Ar      Ar      Ar      0.000000 39.950000
    3628 A       3628       Ar      Ar      Ar      0.000000 39.950000
    3629 A       3629       Ar      Ar      Ar      0.000000 39.950000
    3630 A       3630       Ar      Ar      Ar      0.000000 39.950000
    3631 A       3631       Ar      Ar      Ar      0.000000 39.950000
    3632 A       3632       Ar      Ar      Ar      0.000000 39.950000
    3633 A       3633       Ar      Ar      Ar      0.000000 39.950000
    3634 A       3634       Ar      Ar      Ar      0.000000 39.950000
    3635 A       3635       Ar      Ar      Ar      0.000000 39.950000
    3636 A       3636       Ar      Ar      Ar      0.000000 39.950000
    3637 A       3637       Ar      Ar      Ar      0.000000 39.950000
    3638 A       3638       Ar      Ar      Ar      0.000000 39.950000
    3639 A       3639       Ar      Ar      Ar      0.000000 39.950000
    3640 A       3640       Ar      Ar      Ar      0.000000 39.950000
    3641 A       3641       Ar      Ar      Ar      0.000000 39.950000
    3642 A       3642       Ar      Ar      Ar      0.000000 39.950000
    3643 A       3643       Ar      Ar      Ar      0.000000 39.950000
    3644 A       3644       Ar      Ar      Ar      0.000000 39.950000
    3645 A       3645       Ar      Ar      Ar      0.000000 39.950000
    3646 A       3646       Ar      Ar      Ar      0.000000 39.950000
    3647 A       3647       Ar      Ar      Ar      0.000000 39.950000
    3648 A       3648       Ar      Ar      Ar      0.000000 39.950000
    3649 A       3649       Ar      Ar      Ar      0.000000 39.950000
    3650 A       3650       Ar      Ar      Ar      0.000000 39.950000
    3651 A       3651       Ar      Ar      Ar      0.000000 39.950000
    3652 A       3652       Ar      Ar      Ar      0.000000 39.950000
    3653 A       3653       Ar      Ar      Ar      0.000000 39.950000
    3654 A       3654       Ar      Ar      Ar      0.000000 39.950000
    3655 A       3655       Ar      Ar      Ar      0.000000 39.950000
    3656 A       3656       Ar      Ar      Ar      0.000000 39.950000
    3657 A       3657       Ar      Ar      Ar      0.000000 39.950000
    3658 A       3658       Ar      Ar      Ar      0.000000 39.950000
    3659 A       3659       Ar      Ar      Ar      0.000000 39.950000
    3660 A       3660       Ar      Ar      Ar      0.000000 39.950000
    3661 A       3661       Ar      Ar      Ar      0.000000 39.950000
    3662 A       3662       Ar      Ar      Ar      0.000000 39.950000
    3663 A       3663       Ar      Ar      Ar      0.000000 39.950000
    3664 A       3664       Ar      Ar      Ar      0.000000 39.950000
    3665 A       3665       Ar      Ar      Ar      0.000000 39.950000
    3666 A       3666       Ar      Ar      Ar      0.000000 39.950000
    3667 A       3667       Ar      Ar      Ar      0.000000 39.950000
    3668 A       3668       Ar      Ar      Ar      0.000000 39.950000
    3669 A       3669       Ar      Ar      Ar      0.000000 39.950000
    3670 A       3670       Ar      Ar      Ar      0.000000 39.950000
    3671 A       3671       Ar      Ar      Ar      0.000000 39.950000
    3672 A       3672       Ar      Ar      Ar      0.000000 39.950000
    3673 A       3673       Ar      Ar      Ar      0.000000 39.950000
    3674 A       3674       Ar      Ar      Ar      0.000000 39.950000
    3675 A       3675       Ar      Ar      Ar      0.000000 39.950000
    3676 A       3676       Ar      Ar      Ar      0.000000 39.950000
    3677 A       3677       Ar      Ar      Ar      0.000000 39.950000
    3678 A       3678       Ar      Ar      Ar      0.000000 39.950000
    3679 A       3679       Ar      Ar      Ar      0.000000 39.950000
    3680 A       3680       Ar      Ar      Ar      0.000000 39.950000
    3681 A       3681       Ar      Ar      Ar      0.000000 39.950000
    3682 A       3682       Ar      Ar      Ar      0.000000 39.950000
    3683 A       3683       Ar      Ar      Ar      0.000000 39.950000
    3684 A       3684       Ar      Ar      Ar      0.000000 39.950000
    3685 A       3685       Ar      Ar      Ar      0.000000 39.950000
    3686 A       3686       Ar      Ar      Ar      0.000000 39.950000
    3687 A       3687       Ar      Ar      Ar      0.000000 39.950000
    3688 A       3688       Ar      Ar      Ar      0.000000 39.950000
    3689 A       3689       Ar      Ar      Ar      0.000000 39.950000
    3690 A       3690       Ar      Ar      Ar      0.000000 39.950000
    3691 A       3691       Ar      Ar      Ar      0.000000 39.950000
    3692 A       3692       Ar      Ar      Ar      0.000000 39.950000
    3693 A       3693       Ar      Ar      Ar      0.000000 39.950000
    3694 A       3694       Ar      Ar      Ar      0.000000 39.950000
    3695 A       3695       Ar      Ar      Ar      0.000000 39.950000
    3696 A       3696       Ar      Ar      Ar      0.000000 39.950000
    3697 A       3697       Ar      Ar      Ar      0.000000 39.950000
    3698 A       3698       Ar      Ar      Ar      0.000000 39.950000
    3699 A       3699       Ar      Ar      Ar      0.000000 39.950000
    3700 A       3700       Ar      Ar      Ar      0.000000 39.950000
    3701 A       3701       Ar      Ar      Ar      0.000000 39.950000
    3702 A       3702       Ar      Ar      Ar      0.000000 39.950000
    3703 A       3703       Ar      Ar      Ar      0.000000 39.950000
    3704 A       3704       Ar      Ar      Ar      0.000000 39.950000
    3705 A       3705       Ar      Ar      Ar      0.000000 39.950000
    3706 A       3706       Ar      Ar      Ar      0.000000 39.950000
    3707 A       3707       Ar      Ar      Ar      0.000000 39.950000
    3708 A       3708       Ar      Ar      Ar      0.000000 39.950000
    3709 A       3709       Ar      Ar      Ar      0.000000 39.950000
    3710 A       3710       Ar      Ar      Ar      0.000000 39.950000
    3711 A       3711       Ar      Ar      Ar      0.000000 39.950000
    3712 A       3712       Ar      Ar      Ar      0.000000 39.950000
    3713 A       3713       Ar      Ar      Ar      0.000000 39.950000
    3714 A       3714       Ar      Ar      Ar      0.000000 39.950000
    3715 A       3715       Ar      Ar      Ar      0.000000 39.950000
    3716 A       3716       Ar      Ar      Ar      0.000000 39.950000
    3717 A       3717       Ar      Ar      Ar      0.000000 39.950000
    3718 A       3718       Ar      Ar      Ar      0.000000 39.950000
    3719 A       3719       Ar      Ar      Ar      0.000000 39.950000
    3720 A       3720       Ar      Ar      Ar      0.000000 39.950000
    3721 A       3721       Ar      Ar      Ar      0.000000 39.950000
    3722 A       3722       Ar      Ar      Ar      0.000000 39.950000
    3723 A       3723       Ar      Ar      Ar      0.000000 39.950000
    3724 A       3724       Ar      Ar      Ar      0.000000 39.950000
    3725 A       3725       Ar      Ar      Ar      0.000000 39.950000
    3726 A       3726       Ar      Ar      Ar      0.000000 39.950000
    3727 A       3727       Ar      Ar      Ar      0.000000 39.950000
    3728 A       3728       Ar      Ar      Ar      0.000000 39.950000
    3729 A       3729       Ar      Ar      Ar      0.000000 39.950000
    3730 A       3730       Ar      Ar      Ar      0.000000 39.950000
    3731 A       3731       Ar      Ar      Ar      0.000000 39.950000
    3732 A       3732       Ar      Ar      Ar      0.000000 39.950000
    3733 A       3733       Ar      Ar      Ar      0.000000 39.950000
    3734 A       3734       Ar      Ar      Ar      0.000000 39.950000
    3735 A       3735       Ar      Ar      Ar      0.000000 39.950000
    3736 A       3736       Ar      Ar      Ar      0.000000 39.950000
    3737 A       3737       Ar      Ar      Ar      0.000000 39.950000
    3738 A       3738       Ar      Ar      Ar      0.000000 39.950000
    3739 A       3739       Ar      Ar      Ar      0.000000 39.950000
    3740 A       3740       Ar      Ar      Ar      0.000000 39.950000
    3741 A       3741       Ar      Ar      Ar      0.000000 39.950000
    3742 A       3742       Ar      Ar      Ar      0.000000 39.950000
    3743 A       3743       Ar      Ar      Ar      0.000000 39.950000
    3744 A       3744       Ar      Ar      Ar      0.000000 39.950000
    3745 A       3745       Ar      Ar      Ar      0.000000 39.950000
    3746 A       3746       Ar      Ar      Ar      0.000000 39.950000
    3747 A       3747       Ar      Ar      Ar      0.000000 39.950000
    3748 A       3748       Ar      Ar      Ar      0.000000 39.950000
    3749 A       3749       Ar      Ar      Ar      0.000000 39.950000
    3750 A       3750       Ar      Ar      Ar      0.000000 39.950000
    3751 A       3751       Ar      Ar      Ar      0.000000 39.950000
    3752 A       3752       Ar      Ar      Ar      0.000000 39.950000
    3753 A       3753       Ar      Ar      Ar      0.000000 39.950000
    3754 A       3754       Ar      Ar      Ar      0.000000 39.950000
    3755 A       3755       Ar      Ar      Ar      0.000000 39.950000
    3756 A       3756       Ar      Ar      Ar      0.000000 39.950000
    3757 A       3757       Ar      Ar      Ar      0.000000 39.950000
    3758 A       3758       Ar      Ar      Ar      0.000000 39.950000
    3759 A       3759       Ar      Ar      Ar      0.000000 39.950000
    3760 A       3760       Ar      Ar      Ar      0.000000 39.950000
    3761 A       3761       Ar      Ar      Ar      0.000000 39.950000
    3762 A       3762       Ar      Ar      Ar      0.000000 39.950000
    3763 A       3763       Ar      Ar      Ar      0.000000 39.950000
    3764 A       3764       Ar      Ar      Ar      0.000000 39.950000
    3765 A       3765       Ar      Ar      Ar      0.000000 39.950000
    3766 A       3766       Ar      Ar      Ar      0.000000 39.950000
    3767 A       3767       Ar      Ar      Ar      0.000000 39.950000
    3768 A       3768       Ar      Ar      Ar      0.000000 39.950000
    3769 A       3769       Ar      Ar      Ar      0.000000 39.950000
    3770 A       3770       Ar      Ar      Ar      0.000000 39.950000
    3771 A       3771       Ar      Ar      Ar      0.000000 39.950000
    3772 A       3772       Ar      Ar      Ar      0.000000 39.950000
    3773 A       3773       Ar      Ar      Ar      0.000000 39.950000
    3774 A       3774       Ar      Ar      Ar      0.000000 39.950000
    3775 A       3775       Ar      Ar      Ar      0.000000 39.950000
    3776 A       3776       Ar      Ar      Ar      0.000000 39.950000
    3777 A       3777       Ar      Ar      Ar      0.000000 39.950000
    3778 A       3778       Ar      Ar      Ar      0.000000 39.950000
    3779 A       3779       Ar      Ar      Ar      0.000000 39.950000
    3780 A       3780       Ar      Ar      Ar      0.000000 39.950000
    3781 A       3781       Ar      Ar      Ar      0.000000 39.950000
    3782 A       3782       Ar      Ar      Ar      0.000000 39.950000
    3783 A       3783       Ar      Ar      Ar      0.000000 39.950000
    3784 A       3784       Ar      Ar      Ar      0.000000 39.950000
    3785 A       3785       Ar      Ar      Ar      0.000000 39.950000
    3786 A       3786       Ar      Ar      Ar      0.000000 39.950000
    3787 A       3787       Ar      Ar      Ar      0.000000 39.950000
    3788 A       3788       Ar      Ar      Ar      0.000000 39.950000
    3789 A       3789       Ar      Ar      Ar      0.000000 39.950000
    3790 A       3790       Ar      Ar      Ar      0.000000 39.950000
    3791 A       3791       Ar      Ar      Ar      0.000000 39.950000
    3792 A       3792       Ar      Ar      Ar      0.000000 39.950000
    3793 A       3793       Ar      Ar      Ar      0.000000 39.950000
    3794 A       3794       Ar      Ar      Ar      0.000000 39.950000
    3795 A       3795       Ar      Ar      Ar      0.000000 39.950000
    3796 A       3796       Ar      Ar      Ar      0.000000 39.950000
    3797 A       3797       Ar      Ar      Ar      0.000000 39.950000
    3798 A       3798       Ar      Ar      Ar      0.000000 39.950000
    3799 A       3799       Ar      Ar      Ar      0.000000 39.950000
    3800 A       3800       Ar      Ar      Ar      0.000000 39.950000
    3801 A       3801       Ar      Ar      Ar      0.000000 39.950000
    3802 A       3802       Ar      Ar      Ar      0.000000 39.950000
    3803 A       3803       Ar      Ar      Ar      0.000000 39.950000
    3804 A       3804       Ar      Ar      Ar      0.000000 39.950000
    3805 A       3805       Ar      Ar      Ar      0.000000 39.950000
    3806 A       3806       Ar      Ar      Ar      0.000000 39.950000
    3807 A       3807       Ar      Ar      Ar      0.000000 39.950000
    3808 A       3808       Ar      Ar      Ar      0.000000 39.950000
    3809 A       3809       Ar      Ar      Ar      0.000000 39.950000
    3810 A       3810       Ar      Ar      Ar      0.000000 39.950000
    3811 A       3811       Ar      Ar      Ar      0.000000 39.950000
    3812 A       3812       Ar      Ar      Ar      0.000000 39.950000
    3813 A       3813       Ar      Ar      Ar      0.000000 39.950000
    3814 A       3814       Ar      Ar      Ar      0.000000 39.950000
    3815 A       3815       Ar      Ar      Ar      0.000000 39.950000
    3816 A       3816       Ar      Ar      Ar      0.000000 39.950000
    3817 A       3817       Ar      Ar      Ar      0.000000 39.950000
    3818 A       3818       Ar      Ar      Ar      0.000000 39.950000
    3819 A       3819       Ar      Ar      Ar      0.000000 39.950000
    3820 A       3820       Ar      Ar      Ar      0.000000 39.950000
    3821 A       3821       Ar      Ar      Ar      0.000000 39.950000
    3822 A       3822       Ar      Ar      Ar      0.000000 39.950000
    3823 A       3823       Ar      Ar      Ar      0.000000 39.950000
    3824 A       3824       Ar      Ar      Ar      0.000000 39.950000
    3825 A       3825       Ar      Ar      Ar      0.000000 39.950000
    3826 A       3826       Ar      Ar      Ar      0.000000 39.950000
    3827 A       3827       Ar      Ar      Ar      0.000000 39.950000
    3828 A       3828       Ar      Ar      Ar      0.000000 39.950000
    3829 A       3829       Ar      Ar      Ar      0.000000 39.950000
    3830 A       3830       Ar      Ar      Ar      0.000000 39.950000
    3831 A       3831       Ar      Ar      Ar      0.000000 39.950000
    3832 A       3832       Ar      Ar      Ar      0.000000 39.950000
    3833 A       3833       Ar      Ar      Ar      0.000000 39.950000
    3834 A       3834       Ar      Ar      Ar      0.000000 39.950000
    3835 A       3835       Ar      Ar      Ar      0.000000 39.950000
    3836 A       3836       Ar      Ar      Ar      0.000000 39.950000
    3837 A       3837       Ar      Ar      Ar      0.000000 39.950000
    3838 A       3838       Ar      Ar      Ar      0.000000 39.950000
    3839 A       3839       Ar      Ar      Ar      0.000000 39.950000
    3840 A       3840       Ar      Ar      Ar      0.000000 39.950000
    3841 A       3841       Ar      Ar      Ar      0.000000 39.950000
    3842 A       3842       Ar      Ar      Ar      0.000000 39.950000
    3843 A       3843       Ar      Ar      Ar      0.000000 39.950000
    3844 A       3844       Ar      Ar      Ar      0.000000 39.950000
    3845 A       3845       Ar      Ar      Ar      0.000000 39.950000
    3846 A       3846       Ar      Ar      Ar      0.000000 39.950000
    3847 A       3847       Ar      Ar      Ar      0.000000 39.950000
    3848 A       3848       Ar      Ar      Ar      0.000000 39.950000
    3849 A       3849       Ar      Ar      Ar      0.000000 39.950000
    3850 A       3850       Ar      Ar      Ar      0.000000 39.950000
    3851 A       3851       Ar      Ar      Ar      0.000000 39.950000
    3852 A       3852       Ar      Ar      Ar      0.000000 39.950000
    3853 A       3853       Ar      Ar      Ar      0.000000 39.950000
    3854 A       3854       Ar      Ar      Ar      0.000000 39.950000
    3855 A       3855       Ar      Ar      Ar      0.000000 39.950000
    3856 A       3856       Ar      Ar      Ar      0.000000 39.950000
    3857 A       3857       Ar      Ar      Ar      0.000000 39.950000
    3858 A       3858       Ar      Ar      Ar      0.000000 39.950000
    3859 A       3859       Ar      Ar      Ar      0.000000 39.950000
    3860 A       3860       Ar      Ar      Ar      0.000000 39.950000
    3861 A       3861       Ar      Ar      Ar      0.000000 39.950000
    3862 A       3862       Ar      Ar      Ar      0.000000 39.950000
    3863 A       3863       Ar      Ar      Ar      0.000000 39.950000
    3864 A       3864       Ar      Ar      Ar      0.000000 39.950000
    3865 A       3865       Ar      Ar      Ar      0.000000 39.950000
    3866 A       3866       Ar      Ar      Ar      0.000000 39.950000
    3867 A       3867       Ar      Ar      Ar      0.000000 39.950000
    3868 A       3868       Ar      Ar      Ar      0.000000 39.950000
    3869 A       3869       Ar      Ar      Ar      0.000000 39.950000
    3870 A       3870       Ar      Ar      Ar      0.000000 39.950000
    3871 A       3871       Ar      Ar      Ar      0.000000 39.950000
    3872 A       3872       Ar      Ar      Ar      0.000000 39.950000
    3873 A       3873       Ar      Ar      Ar      0.000000 39.950000
    3874 A       3874       Ar      Ar      Ar      0.000000 39.950000
    3875 A       3875       Ar      Ar      Ar      0.000000 39.950000
    3876 A       3876       Ar      Ar      Ar      0.000000 39.950000
    3877 A       3877       Ar      Ar      Ar      0.000000 39.950000
    3878 A       3878       Ar      Ar      Ar      0.000000 39.950000
    3879 A       3879       Ar      Ar      Ar      0.000000 39.950000
    3880 A       3880       Ar      Ar      Ar      0.000000 39.950000
    3881 A       3881       Ar      Ar      Ar      0.000000 39.950000
    3882 A       3882       Ar      Ar      Ar      0.000000 39.950000
    3883 A       3883       Ar      Ar      Ar      0.000000 39.950000
    3884 A       3884       Ar      Ar      Ar      0.000000 39.950000
    3885 A       3885       Ar      Ar      Ar      0.000000 39.950000
    3886 A       3886       Ar      Ar      Ar      0.000000 39.950000
    3887 A       3887       Ar      Ar      Ar      0.000000 39.950000
    3888 A       3888       Ar      Ar      Ar      0.000000 39.950000
    3889 A       3889       Ar      Ar      Ar      0.000000 39.950000
    3890 A       3890       Ar      Ar      Ar      0.000000 39.950000
    3891 A       3891       Ar      Ar      Ar      0.000000 39.950000
    3892 A       3892       Ar      Ar      Ar      0.000000 39.950000
    3893 A       3893       Ar      Ar      Ar      0.000000 39.950000
    3894 A       3894       Ar      Ar      Ar      0.000000 39.950000
    3895 A       3895       Ar      Ar      Ar      0.000000 39.950000
    3896 A       3896       Ar      Ar      Ar      0.000000 39.950000
    3897 A       3897       Ar      Ar      Ar      0.000000 39.950000
    3898 A       3898       Ar      Ar      Ar      0.000000 39.950000
    3899 A       3899       Ar      Ar      Ar      0.000000 39.950000
    3900 A       3900       Ar      Ar      Ar      0.000000 39.950000
    3901 A       3901       Ar      Ar      Ar      0.000000 39.950000
    3902 A       3902       Ar      Ar      Ar      0.000000 39.950000
    3903 A       3903       Ar      Ar      Ar      0.000000 39.950000
    3904 A       3904       Ar      Ar      Ar      0.000000 39.950000
    3905 A       3905       Ar      Ar      Ar      0.000000 39.950000
    3906 A       3906       Ar      Ar      Ar      0.000000 39.950000
    3907 A       3907       Ar      Ar      Ar      0.000000 39.950000
    3908 A       3908       Ar      Ar      Ar      0.000000 39.950000
    3909 A       3909       Ar      Ar      Ar      0.000000 39.950000
    3910 A       3910       Ar      Ar      Ar      0.000000 39.950000
    3911 A       3911       Ar      Ar      Ar      0.000000 39.950000
    3912 A       3912       Ar      Ar      Ar      0.000000 39.950000
    3913 A       3913       Ar      Ar      Ar      0.000000 39.950000
    3914 A       3914       Ar      Ar      Ar      0.000000 39.950000
    3915 A       3915       Ar      Ar      Ar      0.000000 39.950000
    3916 A       3916       Ar      Ar      Ar      0.000000 39.950000
    3917 A       3917       Ar      Ar      Ar      0.000000 39.950000
    3918 A       3918       Ar      Ar      Ar      0.000000 39.950000
    3919 A       3919       Ar      Ar      Ar      0.000000 39.950000
    3920 A       3920       Ar      Ar      Ar      0.000000 39.950000
    3921 A       3921       Ar      Ar      Ar      0.000000 39.950000
    3922 A       3922       Ar      Ar      Ar      0.000000 39.950000
    3923 A       3923       Ar      Ar      Ar      0.000000 39.950000
    3924 A       3924       Ar      Ar      Ar      0.000000 39.950000
    3925 A       3925       Ar      Ar      Ar      0.000000 39.950000
    3926 A       3926       Ar      Ar      Ar      0.000000 39.950000
    3927 A       3927       Ar      Ar      Ar      0.000000 39.950000
    3928 A       3928       Ar      Ar      Ar      0.000000 39.950000
    3929 A       3929       Ar      Ar      Ar      0.000000 39.950000
    3930 A       3930       Ar      Ar      Ar      0.000000 39.950000
    3931 A       3931       Ar      Ar      Ar      0.000000 39.950000
    3932 A       3932       Ar      Ar      Ar      0.000000 39.950000
    3933 A       3933       Ar      Ar      Ar      0.000000 39.950000
    3934 A       3934       Ar      Ar      Ar      0.000000 39.950000
    3935 A       3935       Ar      Ar      Ar      0.000000 39.950000
    3936 A       3936       Ar      Ar      Ar      0.000000 39.950000
    3937 A       3937       Ar      Ar      Ar      0.000000 39.950000
    3938 A       3938       Ar      Ar      Ar      0.000000 39.950000
    3939 A       3939       Ar      Ar      Ar      0.000000 39.950000
    3940 A       3940       Ar      Ar      Ar      0.000000 39.950000
    3941 A       3941       Ar      Ar      Ar      0.000000 39.950000
    3942 A       3942       Ar      Ar      Ar      0.000000 39.950000
    3943 A       3943       Ar      Ar      Ar      0.000000 39.950000
    3944 A       3944       Ar      Ar      Ar      0.000000 39.950000
    3945 A       3945       Ar      Ar      Ar      0.000000 39.950000
    3946 A       3946       Ar      Ar      Ar      0.000000 39.950000
    3947 A       3947       Ar      Ar      Ar      0.000000 39.950000
    3948 A       3948       Ar      Ar      Ar      0.000000 39.950000
    3949 A       3949       Ar      Ar      Ar      0.000000 39.950000
    3950 A       3950       Ar      Ar      Ar      0.000000 39.950000
    3951 A       3951       Ar      Ar      Ar      0.000000 39.950000
    3952 A       3952       Ar      Ar      Ar      0.000000 39.950000
    3953 A       3953       Ar      Ar      Ar      0.000000 39.950000
    3954 A       3954       Ar      Ar      Ar      0.000000 39.950000
    3955 A       3955       Ar      Ar      Ar      0.000000 39.950000
    3956 A       3956       Ar      Ar      Ar      0.000000 39.950000
    3957 A       3957       Ar      Ar      Ar      0.000000 39.950000
    3958 A       3958       Ar      Ar      Ar      0.000000 39.950000
    3959 A       3959       Ar      Ar      Ar      0.000000 39.950000
    3960 A       3960       Ar      Ar      Ar      0.000000 39.950000
    3961 A       3961       Ar      Ar      Ar      0.000000 39.950000
    3962 A       3962       Ar      Ar      Ar      0.000000 39.950000
    3963 A       3963       Ar      Ar      Ar      0.000000 39.950000
    3964 A       3964       Ar      Ar      Ar      0.000000 39.950000
    3965 A       3965       Ar      Ar      Ar      0.000000 39.950000
    3966 A       3966       Ar      Ar      Ar      0.000000 39.950000
    3967 A       3967       Ar      Ar      Ar      0.000000 39.950000
    3968 A       3968       Ar      Ar      Ar      0.000000 39.950000
    3969 A       3969       Ar      Ar      Ar      0.000000 39.950000
    3970 A       3970       Ar      Ar      Ar      0.000000 39.950000
    3971 A       3971       Ar      Ar      Ar      0.000000 39.950000
    3972 A       3972       Ar      Ar      Ar      0.000000 39.950000
    3973 A       3973       Ar      Ar      Ar      0.000000 39.950000
    3974 A       3974       Ar      Ar      Ar      0.000000 39.950000
    3975 A       3975       Ar      Ar      Ar      0.000000 39.950000
    3976 A       3976       Ar      Ar      Ar      0.000000 39.950000
    3977 A       3977       Ar      Ar      Ar      0.000000 39.950000
    3978 A       3978       Ar      Ar      Ar      0.000000 39.950000
    3979 A       3979       Ar      Ar      Ar      0.000000 39.950000
    3980 A       3980       Ar      Ar      Ar      0.000000 39.950000
    3981 A       3981       Ar      Ar      Ar      0.000000 39.950000
    3982 A       3982       Ar      Ar      Ar      0.000000 39.950000
    3983 A       3983       Ar      Ar      Ar      0.000000 39.950000
    3984 A       3984       Ar      Ar      Ar      0.000000 39.950000
    3985 A       3985       Ar      Ar      Ar      0.000000 39.950000
    3986 A       3986       Ar      Ar      Ar      0.000000 39.950000
    3987 A       3987       Ar      Ar      Ar      0.000000 39.950000
    3988 A       3988       Ar      Ar      Ar      0.000000 39.950000
    3989 A       3989       Ar      Ar      Ar      0.000000 39.950000
    3990 A       3990       Ar      Ar      Ar      0.000000 39.950000
    3991 A       3991       Ar      Ar      Ar      0.000000 39.950000
    3992 A       3992       Ar      Ar      Ar      0.000000 39.950000
    3993 A       3993       Ar      Ar      Ar      0.000000 39.950000
    3994 A       3994       Ar      Ar      Ar      0.000000 39.950000
    3995 A       3995       Ar      Ar      Ar      0.000000 39.950000
    3996 A       3996       Ar      Ar      Ar      0.000000 39.950000
    3997 A       3997       Ar      Ar      Ar      0.000000 39.950000
    3998 A       3998       Ar      Ar      Ar      0.000000 39.950000
    3999 A       3999       Ar      Ar      Ar      0.000000 39.950000
    4000 A       4000       Ar      Ar      Ar      0.000000 39.950000
    4001 A       4001       Ar      Ar      Ar      0.000000 39.950000
    4002 A       4002       Ar      Ar      Ar      0.000000 39.950000
    4003 A       4003       Ar      Ar      Ar      0.000000 39.950000
    4004 A       4004       Ar      Ar      Ar      0.000000 39.950000
    4005 A       4005       Ar      Ar      Ar      0.000000 39.950000
    4006 A       4006       Ar      Ar      Ar      0.000000 39.950000
    4007 A       4007       Ar      Ar      Ar      0.000000 39.950000
    4008 A       4008       Ar      Ar      Ar      0.000000 39.950000
    4009 A       4009       Ar      Ar      Ar      0.000000 39.950000
    4010 A       4010       Ar      Ar      Ar      0.000000 39.950000
    4011 A       4011       Ar      Ar      Ar      0.000000 39.950000
    4012 A       4012       Ar      Ar      Ar      0.000000 39.950000
    4013 A       4013       Ar      Ar      Ar      0.000000 39.950000
    4014 A       4014       Ar      Ar      Ar      0.000000 39.950000
    4015 A       4015       Ar      Ar      Ar      0.000000 39.950000
    4016 A       4016       Ar      Ar      Ar      0.000000 39.950000
    4017 A       4017       Ar      Ar      Ar      0.000000 39.950000
    4018 A       4018       Ar      Ar      Ar      0.000000 39.950000
    4019 A       4019       Ar      Ar      Ar      0.000000 39.950000
    4020 A       4020       Ar      Ar      Ar      0.000000 39.950000
    4021 A       4021       Ar      Ar      Ar      0.000000 39.950000
    4022 A       4022       Ar      Ar      Ar      0.000000 39.950000
    4023 A       4023       Ar      Ar      Ar      0.000000 39.950000
    4024 A       4024       Ar      Ar      Ar      0.000000 39.950000
    4025 A       4025       Ar      Ar      Ar      0.000000 39.950000
    4026 A       4026       Ar      Ar      Ar      0.000000 39.950000
    4027 A       4027       Ar      Ar      Ar      0.000000 39.950000
    4028 A       4028       Ar      Ar      Ar      0.000000 39.950000
    4029 A       4029       Ar      Ar      Ar      0.000000 39.950000
    4030 A       4030       Ar      Ar      Ar      0.000000 39.950000
    4031 A       4031       Ar      Ar      Ar      0.000000 39.950000
    4032 A       4032       Ar      Ar      Ar      0.000000 39.950000
    4033 A       4033       Ar      Ar      Ar      0.000000 39.950000
    4034 A       4034       Ar      Ar      Ar      0.000000 39.950000
    4035 A       4035       Ar      Ar      Ar      0.000000 39.950000
    4036 A       4036       Ar      Ar      Ar      0.000000 39.950000
    4037 A       4037       Ar      Ar      Ar      0.000000 39.950000
    4038 A       4038       Ar      Ar      Ar      0.000000 39.950000
    4039 A       4039       Ar      Ar      Ar      0.000000 39.950000
    4040 A       4040       Ar      Ar      Ar      0.000000 39.950000
    4041 A       4041       Ar      Ar      Ar      0.000000 39.950000
    4042 A       4042       Ar      Ar      Ar      0.000000 39.950000
    4043 A       4043       Ar      Ar      Ar      0.000000 39.950000
    4044 A       4044       Ar      Ar      Ar      0.000000 39.950000
    4045 A       4045       Ar      Ar      Ar      0.000000 39.950000
    4046 A       4046       Ar      Ar      Ar      0.000000 39.950000
    4047 A       4047       Ar      Ar      Ar      0.000000 39.950000
    4048 A       4048       Ar      Ar      Ar      0.000000 39.950000
    4049 A       4049       Ar      Ar      Ar      0.000000 39.950000
    4050 A       4050       Ar      Ar      Ar      0.000000 39.950000
    4051 A       4051       Ar      Ar      Ar      0.000000 39.950000
    4052 A       4052       Ar      Ar      Ar      0.000000 39.950000
    4053 A       4053       Ar      Ar      Ar      0.000000 39.950000
    4054 A       4054       Ar      Ar      Ar      0.000000 39.950000
    4055 A       4055       Ar      Ar      Ar      0.000000 39.950000
    4056 A       4056       Ar      Ar      Ar      0.000000 39.950000
    4057 A       4057       Ar      Ar      Ar      0.000000 39.950000
    4058 A       4058       Ar      Ar      Ar      0.000000 39.950000
    4059 A       4059       Ar      Ar      Ar      0.000000 39.950000
    4060 A       4060       Ar      Ar      Ar      0.000000 39.950000
    4061 A       4061       Ar      Ar      Ar      0.000000 39.950000
    4062 A       4062       Ar      Ar      Ar      0.000000 39.950000
    4063 A       4063       Ar      Ar      Ar      0.000000 39.950000
    4064 A       4064       Ar      Ar      Ar      0.000000 39.950000
    4065 A       4065       Ar      Ar      Ar      0.000000 39.950000
    4066 A       4066       Ar      Ar      Ar      0.000000 39.950000
    4067 A       4067       Ar      Ar      Ar      0.000000 39.950000
    4068 A       4068       Ar      Ar      Ar      0.000000 39.950000
    4069 A       4069       Ar      Ar      Ar      0.000000 39.950000
    4070 A       4070       Ar      Ar      Ar      0.000000 39.950000
    4071 A       4071       Ar      Ar      Ar      0.000000 39.950000
    4072 A       4072       Ar      Ar      Ar      0.000000 39.950000
    4073 A       4073       Ar      Ar      Ar      0.000000 39.950000
    4074 A       4074       Ar      Ar      Ar      0.000000 39.950000
    4075 A       4075       Ar      Ar      Ar      0.000000 39.950000
    4076 A       4076       Ar      Ar      Ar      0.000000 39.950000
    4077 A       4077       Ar      Ar      Ar      0.000000 39.950000
    4078 A       4078       Ar      Ar      Ar      0.000000 39.950000
    4079 A       4079       Ar      Ar      Ar      0.000000 39.950000
    4080 A       4080       Ar      Ar      Ar      0.000000 39.950000
    4081 A       4081       Ar      Ar      Ar      0.000000 39.950000
    4082 A       4082       Ar      Ar      Ar      0.000000 39.950000
    4083 A       4083       Ar      Ar      Ar      0.000000 39.950000
    4084 A       4084       Ar      Ar      Ar      0.000000 39.950000
    4085 A       4085       Ar      Ar      Ar      0.000000 39.950000
    4086 A       4086       Ar      Ar      Ar      0.000000 39.950000
    4087 A       4087       Ar      Ar      Ar      0.000000 39.950000
    4088 A       4088       Ar      Ar      Ar      0.000000 39.950000
    4089 A       4089       Ar      Ar      Ar      0.000000 39.950000
    4090 A       4090       Ar      Ar      Ar      0.000000 39.950000
    4091 A       4091       Ar      Ar      Ar      0.000000 39.950000
    4092 A       4092       Ar      Ar      Ar      0.000000 39.950000
    4093 A       4093       Ar      Ar      Ar      0.000000 39.950000
    4094 A       4094       Ar      Ar      Ar      0.000000 39.950000
    4095 A       4095       Ar      Ar      Ar      0.000000 39.950000
    4096 A       4096       Ar      Ar      Ar      0.000000 39.950000
    4097 A       4097       Ar      Ar      Ar      0.000000 39.950000
    4098 A       4098       Ar      Ar      Ar      0.000000 39.950000
    4099 A       4099       Ar      Ar      Ar      0.000000 39.950000
    4100 A       4100       Ar      Ar      Ar      0.000000 39.950000
    4101 A       4101       Ar      Ar      Ar      0.000000 39.950000
    4102 A       4102       Ar      Ar      Ar      0.000000 39.950000
    4103 A       4103       Ar      Ar      Ar      0.000000 39.950000
    4104 A       4104       Ar      Ar      Ar      0.000000 39.950000
    4105 A       4105       Ar      Ar      Ar      0.000000 39.950000
    4106 A       4106       Ar      Ar      Ar      0.000000 39.950000
    4107 A       4107       Ar      Ar      Ar      0.000000 39.950000
    4108 A       4108       Ar      Ar      Ar      0.000000 39.950000
    4109 A       4109       Ar      Ar      Ar      0.000000 39.950000
    4110 A       4110       Ar      Ar      Ar      0.000000 39.950000
    4111 A       4111       Ar      Ar      Ar      0.000000 39.950000
    4112 A       4112       Ar      Ar      Ar      0.000000 39.950000
    4113 A       4113       Ar      Ar      Ar      0.000000 39.950000
    4114 A       4114       Ar      Ar      Ar      0.000000 39.950000
    4115 A       4115       Ar      Ar      Ar      0.000000 39.950000
    4116 A       4116       Ar      Ar      Ar      0.000000 39.950000
    4117 A       4117       Ar      Ar      Ar      0.000000 39.950000
    4118 A       4118       Ar      Ar      Ar      0.000000 39.950000
    4119 A       4119       Ar      Ar      Ar      0.000000 39.950000
    4120 A       4120       Ar      Ar      Ar      0.000000 39.950000
    4121 A       4121       Ar      Ar      Ar      0.000000 39.950000
    4122 A       4122       Ar      Ar      Ar      0.000000 39.950000
    4123 A       4123       Ar      Ar      Ar      0.000000 39.950000
    4124 A       4124       Ar      Ar      Ar      0.000000 39.950000
    4125 A       4125       Ar      Ar      Ar      0.000000 39.950000
    4126 A       4126       Ar      Ar      Ar      0.000000 39.950000
    4127 A       4127       Ar      Ar      Ar      0.000000 39.950000
    4128 A       4128       Ar      Ar      Ar      0.000000 39.950000
    4129 A       4129       Ar      Ar      Ar      0.000000 39.950000
    4130 A       4130       Ar      Ar      Ar      0.000000 39.950000
    4131 A       4131       Ar      Ar      Ar      0.000000 39.950000
    4132 A       4132       Ar      Ar      Ar      0.000000 39.950000
    4133 A       4133       Ar      Ar      Ar      0.000000 39.950000
    4134 A       4134       Ar      Ar      Ar      0.000000 39.950000
    4135 A       4135       Ar      Ar      Ar      0.000000 39.950000
    4136 A       4136       Ar      Ar      Ar      0.000000 39.950000
    4137 A       4137       Ar      Ar      Ar      0.000000 39.950000
    4138 A       4138       Ar      Ar      Ar      0.000000 39.950000
    4139 A       4139       Ar      Ar      Ar      0.000000 39.950000
    4140 A       4140       Ar      Ar      Ar      0.000000 39.950000
    4141 A       4141       Ar      Ar      Ar      0.000000 39.950000
    4142 A       4142       Ar      Ar      Ar      0.000000 39.950000
    4143 A       4143       Ar      Ar      Ar      0.000000 39.950000
    4144 A       4144       Ar      Ar      Ar      0.000000 39.950000
    4145 A       4145       Ar      Ar      Ar      0.000000 39.950000
    4146 A       4146       Ar      Ar      Ar      0.000000 39.950000
    4147 A       4147       Ar      Ar      Ar      0.000000 39.950000
    4148 A       4148       Ar      Ar      Ar      0.000000 39.950000
    4149 A       4149       Ar      Ar      Ar      0.000000 39.950000
    4150 A       4150       Ar      Ar      Ar      0.000000 39.950000
    4151 A       4151       Ar      Ar      Ar      0.000000 39.950000
    4152 A       4152       Ar      Ar      Ar      0.000000 39.950000
    4153 A       4153       Ar      Ar      Ar      0.000000 39.950000
    4154 A       4154       Ar      Ar      Ar      0.000000 39.950000
    4155 A       4155       Ar      Ar      Ar      0.000000 39.950000
    4156 A       4156       Ar      Ar      Ar      0.000000 39.950000
    4157 A       4157       Ar      Ar      Ar      0.000000 39.950000
    4158 A       4158       Ar      Ar      Ar      0.000000 39.950000
    4159 A       4159       Ar      Ar      Ar      0.000000 39.950000
    4160 A       4160       Ar      Ar      Ar      0.000000 39.950000
    4161 A       4161       Ar      Ar      Ar      0.000000 39.950000
    4162 A       4162       Ar      Ar      Ar      0.000000 39.950000
    4163 A       4163       Ar      Ar      Ar      0.000000 39.950000
    4164 A       4164       Ar      Ar      Ar      0.000000 39.950000
    4165 A       4165       Ar      Ar      Ar      0.000000 39.950000
    4166 A       4166       Ar      Ar      Ar      0.000000 39.950000
    4167 A       4167       Ar      Ar      Ar      0.000000 39.950000
    4168 A       4168       Ar      Ar      Ar      0.000000 39.950000
    4169 A       4169       Ar      Ar      Ar      0.000000 39.950000
    4170 A       4170       Ar      Ar      Ar      0.000000 39.950000
    4171 A       4171       Ar      Ar      Ar      0.000000 39.950000
    4172 A       4172       Ar      Ar      Ar      0.000000 39.950000
    4173 A       4173       Ar      Ar      Ar      0.000000 39.950000
    4174 A       4174       Ar      Ar      Ar      0.000000 39.950000
    4175 A       4175       Ar      Ar      Ar      0.000000 39.950000
    4176 A       4176       Ar      Ar      Ar      0.000000 39.950000
    4177 A       4177       Ar      Ar      Ar      0.000000 39.950000
    4178 A       4178       Ar      Ar      Ar      0.000000 39.950000
    4179 A       4179       Ar      Ar      Ar      0.000000 39.950000
    4180 A       4180       Ar      Ar      Ar      0.000000 39.950000
    4181 A       4181       Ar      Ar      Ar      0.000000 39.950000
    4182 A       4182       Ar      Ar      Ar      0.000000 39.950000
    4183 A       4183       Ar      Ar      Ar      0.000000 39.950000
    4184 A       4184       Ar      Ar      Ar      0.000000 39.950000
    4185 A       4185       Ar      Ar      Ar      0.000000 39.950000
    4186 A       4186       Ar      Ar      Ar      0.000000 39.950000
    4187 A       4187       Ar      Ar      Ar      0.000000 39.950000
    4188 A       4188       Ar      Ar      Ar      0.000000 39.950000
    4189 A       4189       Ar      Ar      Ar      0.000000 39.950000
    4190 A       4190       Ar      Ar      Ar      0.000000 39.950000
    4191 A       4191       Ar      Ar      Ar      0.000000 39.950000
    4192 A       4192       Ar      Ar      Ar      0.000000 39.950000
    4193 A       4193       Ar      Ar      Ar      0.000000 39.950000
    4194 A       4194       Ar      Ar      Ar      0.000000 39.950000
    4195 A       4195       Ar      Ar      Ar      0.000000 39.950000
    4196 A       4196       Ar      Ar      Ar      0.000000 39.950000
    4197 A       4197       Ar      Ar      Ar      0.000000 39.950000
    4198 A       4198       Ar      Ar      Ar      0.000000 39.950000
    4199 A       4199       Ar      Ar      Ar      0.000000 39.950000
    4200 A       4200       Ar      Ar      Ar      0.000000 39.950000
    4201 A       4201       Ar      Ar      Ar      0.000000 39.950000
    4202 A       4202       Ar      Ar      Ar      0.000000 39.950000
    4203 A       4203       Ar      Ar      Ar      0.000000 39.950000
    4204 A       4204       Ar      Ar      Ar      0.000000 39.950000
    4205 A       4205       Ar      Ar      Ar      0.000000 39.950000
    4206 A       4206       Ar      Ar      Ar      0.000000 39.950000
    4207 A       4207       Ar      Ar      Ar      0.000000 39.950000
    4208 A       4208       Ar      Ar      Ar      0.000000 39.950000
    4209 A       4209       Ar      Ar      Ar      0.000000 39.950000
    4210 A       4210       Ar      Ar      Ar      0.000000 39.950000
    4211 A       4211       Ar      Ar      Ar      0.000000 39.950000
    4212 A       4212       Ar      Ar      Ar      0.000000 39.950000
    4213 A       4213       Ar      Ar      Ar      0.000000 39.950000
    4214 A       4214       Ar      Ar      Ar      0.000000 39.950000
    4215 A       4215       Ar      Ar      Ar      0.000000 39.950000
    4216 A       4216       Ar      Ar      Ar      0.000000 39.950000
    4217 A       4217       Ar      Ar      Ar      0.000000 39.950000
    4218 A       4218       Ar      Ar      Ar      0.000000 39.950000
    4219 A       4219       Ar      Ar      Ar      0.000000 39.950000
    4220 A       4220       Ar      Ar      Ar      0.000000 39.950000
    4221 A       4221       Ar      Ar      Ar      0.000000 39.950000
    4222 A       4222       Ar      Ar      Ar      0.000000 39.950000
    4223 A       4223       Ar      Ar      Ar      0.000000 39.950000
    4224 A       4224       Ar      Ar      Ar      0.000000 39.950000
    4225 A       4225       Ar      Ar      Ar      0.000000 39.950000
    4226 A       4226       Ar      Ar      Ar      0.000000 39.950000
    4227 A       4227       Ar      Ar      Ar      0.000000 39.950000
    4228 A       4228       Ar      Ar      Ar      0.000000 39.950000
    4229 A       4229       Ar      Ar      Ar      0.000000 39.950000
    4230 A       4230       Ar      Ar      Ar      0.000000 39.950000
    4231 A       4231       Ar      Ar      Ar      0.000000 39.950000
    4232 A       4232       Ar      Ar      Ar      0.000000 39.950000
    4233 A       4233       Ar      Ar      Ar      0.000000 39.950000
    4234 A       4234       Ar      Ar      Ar      0.000000 39.950000
    4235 A       4235       Ar      Ar      Ar      0.000000 39.950000
    4236 A       4236       Ar      Ar      Ar      0.000000 39.950000
    4237 A       4237       Ar      Ar      Ar      0.000000 39.950000
    4238 A       4238       Ar      Ar      Ar      0.000000 39.950000
    4239 A       4239       Ar      Ar      Ar      0.000000 39.950000
    4240 A       4240       Ar      Ar      Ar      0.000000 39.950000
    4241 A       4241       Ar      Ar      Ar      0.000000 39.950000
    4242 A       4242       Ar      Ar      Ar      0.000000 39.950000
    4243 A       4243       Ar      Ar      Ar      0.000000 39.950000
    4244 A       4244       Ar      Ar      Ar      0.000000 39.950000
    4245 A       4245       Ar      Ar      Ar      0.000000 39.950000
    4246 A       4246       Ar      Ar      Ar      0.000000 39.950000
    4247 A       4247       Ar      Ar      Ar      0.000000 39.950000
    4248 A       4248       Ar      Ar      Ar      0.000000 39.950000
    4249 A       4249       Ar      Ar      Ar      0.000000 39.950000
    4250 A       4250       Ar      Ar      Ar      0.000000 39.950000
    4251 A       4251       Ar      Ar      Ar      0.000000 39.950000
    4252 A       4252       Ar      Ar      Ar      0.000000 39.950000
    4253 A       4253       Ar      Ar      Ar      0.000000 39.950000
    4254 A       4254       Ar      Ar      Ar      0.000000 39.950000
    4255 A       4255       Ar      Ar      Ar      0.000000 39.950000
    4256 A       4256       Ar      Ar      Ar      0.000000 39.950000
    4257 A       4257       Ar      Ar      Ar      0.000000 39.950000
    4258 A       4258       Ar      Ar      Ar      0.000000 39.950000
    4259 A       4259       Ar      Ar      Ar      0.000000 39.950000
    4260 A       4260       Ar      Ar      Ar      0.000000 39.950000
    4261 A       4261       Ar      Ar      Ar      0.000000 39.950000
    4262 A       4262       Ar      Ar      Ar      0.000000 39.950000
    4263 A       4263       Ar      Ar      Ar      0.000000 39.950000
    4264 A       4264       Ar      Ar      Ar      0.000000 39.950000
    4265 A       4265       Ar      Ar      Ar      0.000000 39.950000
    4266 A       4266       Ar      Ar      Ar      0.000000 39.950000
    4267 A       4267       Ar      Ar      Ar      0.000000 39.950000
    4268 A       4268       Ar      Ar      Ar      0.000000 39.950000
    4269 A       4269       Ar      Ar      Ar      0.000000 39.950000
    4270 A       4270       Ar      Ar      Ar      0.000000 39.950000
    4271 A       4271       Ar      Ar      Ar      0.000000 39.950000
    4272 A       4272       Ar      Ar      Ar      0.000000 39.950000
    4273 A       4273       Ar      Ar      Ar      0.000000 39.950000
    4274 A       4274       Ar      Ar      Ar      0.000000 39.950000
    4275 A       4275       Ar      Ar      Ar      0.000000 39.950000
    4276 A       4276       Ar      Ar      Ar      0.000000 39.950000
    4277 A       4277       Ar      Ar      Ar      0.000000 39.950000
    4278 A       4278       Ar      Ar      Ar      0.000000 39.950000
    4279 A       4279       Ar      Ar      Ar      0.000000 39.950000
    4280 A       4280       Ar      Ar      Ar      0.000000 39.950000
    4281 A       4281       Ar      Ar      Ar      0.000000 39.950000
    4282 A       4282       Ar      Ar      Ar      0.000000 39.950000
    4283 A       4283       Ar      Ar      Ar      0.000000 39.950000
    4284 A       4284       Ar      Ar      Ar      0.000000 39.950000
    4285 A       4285       Ar      Ar      Ar      0.000000 39.950000
    4286 A       4286       Ar      Ar      Ar      0.000000 39.950000
    4287 A       4287       Ar      Ar      Ar      0.000000 39.950000
    4288 A       4288       Ar      Ar      Ar      0.000000 39.950000
    4289 A       4289       Ar      Ar      Ar      0.000000 39.950000
    4290 A       4290       Ar      Ar      Ar      0.000000 39.950000
    4291 A       4291       Ar      Ar      Ar      0.000000 39.950000
    4292 A       4292       Ar      Ar      Ar      0.000000 39.950000
    4293 A       4293       Ar      Ar      Ar      0.000000 39.950000
    4294 A       4294       Ar      Ar      Ar      0.000000 39.950000
    4295 A       4295       Ar      Ar      Ar      0.000000 39.950000
    4296 A       4296       Ar      Ar      Ar      0.000000 39.950000
    4297 A       4297       Ar      Ar      Ar      0.000000 39.950000
    4298 A       4298       Ar      Ar      Ar      0.000000 39.950000
    4299 A       4299       Ar      Ar      Ar      0.000000 39.950000
    4300 A       4300       Ar      Ar      Ar      0.000000 39.950000
    4301 A       4301       Ar      Ar      Ar      0.000000 39.950000
    4302 A       4302       Ar      Ar      Ar      0.000000 39.950000
    4303 A       4303       Ar      Ar      Ar      0.000000 39.950000
    4304 A       4304       Ar      Ar      Ar      0.000000 39.950000
    4305 A       4305       Ar      Ar      Ar      0.000000 39.950000
    4306 A       4306       Ar      Ar      Ar      0.000000 39.950000
    4307 A       4307       Ar      Ar      Ar      0.000000 39.950000
    4308 A       4308       Ar      Ar      Ar      0.000000 39.950000
    4309 A       4309       Ar      Ar      Ar      0.000000 39.950000
    4310 A       4310       Ar      Ar      Ar      0.000000 39.950000
    4311 A       4311       Ar      Ar      Ar      0.000000 39.950000
    4312 A       4312       Ar      Ar      Ar      0.000000 39.950000
    4313 A       4313       Ar      Ar      Ar      0.000000 39.950000
    4314 A       4314       Ar      Ar      Ar      0.000000 39.950000
    4315 A       4315       Ar      Ar      Ar      0.000000 39.950000
    4316 A       4316       Ar      Ar      Ar      0.000000 39.950000
    4317 A       4317       Ar      Ar      Ar      0.000000 39.950000
    4318 A       4318       Ar      Ar      Ar      0.000000 39.950000
    4319 A       4319       Ar      Ar      Ar      0.000000 39.950000
    4320 A       4320       Ar      Ar      Ar      0.000000 39.950000
    4321 A       4321       Ar      Ar      Ar      0.000000 39.950000
    4322 A       4322       Ar      Ar      Ar      0.000000 39.950000
    4323 A       4323       Ar      Ar      Ar      0.000000 39.950000
    4324 A       4324       Ar      Ar      Ar      0.000000 39.950000
    4325 A       4325       Ar      Ar      Ar      0.000000 39.950000
    4326 A       4326       Ar      Ar      Ar      0.000000 39.950000
    4327 A       4327       Ar      Ar      Ar      0.000000 39.950000
    4328 A       4328       Ar      Ar      Ar      0.000000 39.950000
    4329 A       4329       Ar      Ar      Ar      0.000000 39.950000
    4330 A       4330       Ar      Ar      Ar      0.000000 39.950000
    4331 A       4331       Ar      Ar      Ar      0.000000 39.950000
    4332 A       4332       Ar      Ar      Ar      0.000000 39.950000
    4333 A       4333       Ar      Ar      Ar      0.000000 39.950000
    4334 A       4334       Ar      Ar      Ar      0.000000 39.950000
    4335 A       4335       Ar      Ar      Ar      0.000000 39.950000
    4336 A       4336       Ar      Ar      Ar      0.000000 39.950000
    4337 A       4337       Ar      Ar      Ar      0.000000 39.950000
    4338 A       4338       Ar      Ar      Ar      0.000000 39.950000
    4339 A       4339       Ar      Ar      Ar      0.000000 39.950000
    4340 A       4340       Ar      Ar      Ar      0.000000 39.950000
    4341 A       4341       Ar      Ar      Ar      0.000000 39.950000
    4342 A       4342       Ar      Ar      Ar      0.000000 39.950000
    4343 A       4343       Ar      Ar      Ar      0.000000 39.950000
    4344 A       4344       Ar      Ar      Ar      0.000000 39.950000
    4345 A       4345       Ar      Ar      Ar      0.000000 39.950000
    4346 A       4346       Ar      Ar      Ar      0.000000 39.950000
    4347 A       4347       Ar      Ar      Ar      0.000000 39.950000
    4348 A       4348       Ar      Ar      Ar      0.000000 39.950000
    4349 A       4349       Ar      Ar      Ar      0.000000 39.950000
    4350 A       4350       Ar      Ar      Ar      0.000000 39.950000
    4351 A       4351       Ar      Ar      Ar      0.000000 39.950000
    4352 A       4352       Ar      Ar      Ar      0.000000 39.950000
    4353 A       4353       Ar      Ar      Ar      0.000000 39.950000
    4354 A       4354       Ar      Ar      Ar      0.000000 39.950000
    4355 A       4355       Ar      Ar      Ar      0.000000 39.950000
    4356 A       4356       Ar      Ar      Ar      0.000000 39.950000
    4357 A       4357       Ar      Ar      Ar      0.000000 39.950000
    4358 A       4358       Ar      Ar      Ar      0.000000 39.950000
    4359 A       4359       Ar      Ar      Ar      0.000000 39.950000
    4360 A       4360       Ar      Ar      Ar      0.000000 39.950000
    4361 A       4361       Ar      Ar      Ar      0.000000 39.950000
    4362 A       4362       Ar      Ar      Ar      0.000000 39.950000
    4363 A       4363       Ar      Ar      Ar      0.000000 39.950000
    4364 A       4364       Ar      Ar      Ar      0.000000 39.950000
    4365 A       4365       Ar      Ar      Ar      0.000000 39.950000
    4366 A       4366       Ar      Ar      Ar      0.000000 39.950000
    4367 A       4367       Ar      Ar      Ar      0.000000 39.950000
    4368 A       4368       Ar      Ar      Ar      0.000000 39.950000
    4369 A       4369       Ar      Ar      Ar      0.000000 39.950000
    4370 A       4370       Ar      Ar      Ar      0.000000 39.950000
    4371 A       4371       Ar      Ar      Ar      0.000000 39.950000
    4372 A       4372       Ar      Ar      Ar      0.000000 39.950000
    4373 A       4373       Ar      Ar      Ar      0.000000 39.950000
    4374 A       4374       Ar      Ar      Ar      0.000000 39.950000
    4375 A       4375       Ar      Ar      Ar      0.000000 39.950000
    4376 A       4376       Ar      Ar      Ar      0.000000 39.950000
    4377 A       4377       Ar      Ar      Ar      0.000000 39.950000
    4378 A       4378       Ar      Ar      Ar      0.000000 39.950000
    4379 A       4379       Ar      Ar      Ar      0.000000 39.950000
    4380 A       4380       Ar      Ar      Ar      0.000000 39.950000
    4381 A       4381       Ar      Ar      Ar      0.000000 39.950000
    4382 A       4382       Ar      Ar      Ar      0.000000 39.950000
    4383 A       4383       Ar      Ar      Ar      0.000000 39.950000
    4384 A       4384       Ar      Ar      Ar      0.000000 39.950000
    4385 A       4385       Ar      Ar      Ar      0.000000 39.950000
    4386 A       4386       Ar      Ar      Ar      0.000000 39.950000
    4387 A       4387       Ar      Ar      Ar      0.000000 39.950000
    4388 A       4388       Ar      Ar      Ar      0.000000 39.950000
    4389 A       4389       Ar      Ar      Ar      0.000000 39.950000
    4390 A       4390       Ar      Ar      Ar      0.000000 39.950000
    4391 A       4391       Ar      Ar      Ar      0.000000 39.950000
    4392 A       4392       Ar      Ar      Ar      0.000000 39.950000
    4393 A       4393       Ar      Ar      Ar      0.000000 39.950000
    4394 A       4394       Ar      Ar      Ar      0.000000 39.950000
    4395 A       4395       Ar      Ar      Ar      0.000000 39.950000
    4396 A       4396       Ar      Ar      Ar      0.000000 39.950000
    4397 A       4397       Ar      Ar      Ar      0.000000 39.950000
    4398 A       4398       Ar      Ar      Ar      0.000000 39.950000
    4399 A       4399       Ar      Ar      Ar      0.000000 39.950000
    4400 A       4400       Ar      Ar      Ar      0.000000 39.950000
    4401 A       4401       Ar      Ar      Ar      0.000000 39.950000
    4402 A       4402       Ar      Ar      Ar      0.000000 39.950000
    4403 A       4403       Ar      Ar      Ar      0.000000 39.950000
    4404 A       4404       Ar      Ar      Ar      0.000000 39.950000
    4405 A       4405       Ar      Ar      Ar      0.000000 39.950000
    4406 A       4406       Ar      Ar      Ar      0.000000 39.950000
    4407 A       4407       Ar      Ar      Ar      0.000000 39.950000
    4408 A       4408       Ar      Ar      Ar      0.000000 39.950000
    4409 A       4409       Ar      Ar      Ar      0.000000 39.950000
    4410 A       4410       Ar      Ar      Ar      0.000000 39.950000
    4411 A       4411       Ar      Ar      Ar      0.000000 39.950000
    4412 A       4412       Ar      Ar      Ar      0.000000 39.950000
    4413 A       4413       Ar      Ar      Ar      0.000000 39.950000
    4414 A       4414       Ar      Ar      Ar      0.000000 39.950000
    4415 A       4415       Ar      Ar      Ar      0.000000 39.950000
    4416 A       4416       Ar      Ar      Ar      0.000000 39.950000
    4417 A       4417       Ar      Ar      Ar      0.000000 39.950000
    4418 A       4418       Ar      Ar      Ar      0.000000 39.950000
    4419 A       4419       Ar      Ar      Ar      0.000000 39.950000
    4420 A       4420       Ar      Ar      Ar      0.000000 39.950000
    4421 A       4421       Ar      Ar      Ar      0.000000 39.950000
    4422 A       4422       Ar      Ar      Ar      0.000000 39.950000
    4423 A       4423       Ar      Ar      Ar      0.000000 39.950000
    4424 A       4424       Ar      Ar      Ar      0.000000 39.950000
    4425 A       4425       Ar      Ar      Ar      0.000000 39.950000
    4426 A       4426       Ar      Ar      Ar      0.000000 39.950000
    4427 A       4427       Ar      Ar      Ar      0.000000 39.950000
    4428 A       4428       Ar      Ar      Ar      0.000000 39.950000
    4429 A       4429       Ar      Ar      Ar      0.000000 39.950000
    4430 A       4430       Ar      Ar      Ar      0.000000 39.950000
    4431 A       4431       Ar      Ar      Ar      0.000000 39.950000
    4432 A       4432       Ar      Ar      Ar      0.000000 39.950000
    4433 A       4433       Ar      Ar      Ar      0.000000 39.950000
    4434 A       4434       Ar      Ar      Ar      0.000000 39.950000
    4435 A       4435       Ar      Ar      Ar      0.000000 39.950000
    4436 A       4436       Ar      Ar      Ar      0.000000 39.950000
    4437 A       4437       Ar      Ar      Ar      0.000000 39.950000
    4438 A       4438       Ar      Ar      Ar      0.000000 39.950000
    4439 A       4439       Ar      Ar      Ar      0.000000 39.950000
    4440 A       4440       Ar      Ar      Ar      0.000000 39.950000
    4441 A       4441       Ar      Ar      Ar      0.000000 39.950000
    4442 A       4442       Ar      Ar      Ar      0.000000 39.950000
    4443 A       4443       Ar      Ar      Ar      0.000000 39.950000
    4444 A       4444       Ar      Ar      Ar      0.000000 39.950000
    4445 A       4445       Ar      Ar      Ar      0.000000 39.950000
    4446 A       4446       Ar      Ar      Ar      0.000000 39.950000
    4447 A       4447       Ar      Ar      Ar      0.000000 39.950000
    4448 A       4448       Ar      Ar      Ar      0.000000 39.950000
    4449 A       4449       Ar      Ar      Ar      0.000000 39.950000
    4450 A       4450       Ar      Ar      Ar      0.000000 39.950000
    4451 A       4451       Ar      Ar      Ar      0.000000 39.950000
    4452 A       4452       Ar      Ar      Ar      0.000000 39.950000
    4453 A       4453       Ar      Ar      Ar      0.000000 39.950000
    4454 A       4454       Ar      Ar      Ar      0.000000 39.950000
    4455 A       4455       Ar      Ar      Ar      0.000000 39.950000
    4456 A       4456       Ar      Ar      Ar      0.000000 39.950000
    4457 A       4457       Ar      Ar      Ar      0.000000 39.950000
    4458 A       4458       Ar      Ar      Ar      0.000000 39.950000
    4459 A       4459       Ar      Ar      Ar      0.000000 39.950000
    4460 A       4460       Ar      Ar      Ar      0.000000 39.950000
    4461 A       4461       Ar      Ar      Ar      0.000000 39.950000
    4462 A       4462       Ar      Ar      Ar      0.000000 39.950000
    4463 A       4463       Ar      Ar      Ar      0.000000 39.950000
    4464 A       4464       Ar      Ar      Ar      0.000000 39.950000
    4465 A       4465       Ar      Ar      Ar      0.000000 39.950000
    4466 A       4466       Ar      Ar      Ar      0.000000 39.950000
    4467 A       4467       Ar      Ar      Ar      0.000000 39.950000
    4468 A       4468       Ar      Ar      Ar      0.000000 39.950000
    4469 A       4469       Ar      Ar      Ar      0.000000 39.950000
    4470 A       4470       Ar      Ar      Ar      0.000000 39.950000
    4471 A       4471       Ar      Ar      Ar      0.000000 39.950000
    4472 A       4472       Ar      Ar      Ar      0.000000 39.950000
    4473 A       4473       Ar      Ar      Ar      0.000000 39.950000
    4474 A       4474       Ar      Ar      Ar      0.000000 39.950000
    4475 A       4475       Ar      Ar      Ar      0.000000 39.950000
    4476 A       4476       Ar      Ar      Ar      0.000000 39.950000
    4477 A       4477       Ar      Ar      Ar      0.000000 39.950000
    4478 A       4478       Ar      Ar      Ar      0.000000 39.950000
    4479 A       4479       Ar      Ar      Ar      0.000000 39.950000
    4480 A       4480       Ar      Ar      Ar      0.000000 39.950000
    4481 A       4481       Ar      Ar      Ar      0.000000 39.950000
    4482 A       4482       Ar      Ar      Ar      0.000000 39.950000
    4483 A       4483       Ar      Ar      Ar      0.000000 39.950000
    4484 A       4484       Ar      Ar      Ar      0.000000 39.950000
    4485 A       4485       Ar      Ar      Ar      0.000000 39.950000
    4486 A       4486       Ar      Ar      Ar      0.000000 39.950000
    4487 A       4487       Ar      Ar      Ar      0.000000 39.950000
    4488 A       4488       Ar      Ar      Ar      0.000000 39.950000
    4489 A       4489       Ar      Ar      Ar      0.000000 39.950000
    4490 A       4490       Ar      Ar      Ar      0.000000 39.950000
    4491 A       4491       Ar      Ar      Ar      0.000000 39.950000
    4492 A       4492       Ar      Ar      Ar      0.000000 39.950000
    4493 A       4493       Ar      Ar      Ar      0.000000 39.950000
    4494 A       4494       Ar      Ar      Ar      0.000000 39.950000
    4495 A       4495       Ar      Ar      Ar      0.000000 39.950000
    4496 A       4496       Ar      Ar      Ar      0.000000 39.950000
    4497 A       4497       Ar      Ar      Ar      0.000000 39.950000
    4498 A       4498       Ar      Ar      Ar      0.000000 39.950000
    4499 A       4499       Ar      Ar      Ar      0.000000 39.950000
    4500 A       4500       Ar      Ar      Ar      0.000000 39.950000
    4501 A       4501       Ar      Ar      Ar      0.000000 39.950000
    4502 A       4502       Ar      Ar      Ar      0.000000 39.950000
    4503 A       4503       Ar      Ar      Ar      0.000000 39.950000
    4504 A       4504       Ar      Ar      Ar      0.000000 39.950000
    4505 A       4505       Ar      Ar      Ar      0.000000 39.950000
    4506 A       4506       Ar      Ar      Ar      0.000000 39.950000
    4507 A       4507       Ar      Ar      Ar      0.000000 39.950000
    4508 A       4508       Ar      Ar      Ar      0.000000 39.950000
    4509 A       4509       Ar      Ar      Ar      0.000000 39.950000
    4510 A       4510       Ar      Ar      Ar      0.000000 39.950000
    4511 A       4511       Ar      Ar      Ar      0.000000 39.950000
    4512 A       4512       Ar      Ar      Ar      0.000000 39.950000
    4513 A       4513       Ar      Ar      Ar      0.000000 39.950000
    4514 A       4514       Ar      Ar      Ar      0.000000 39.950000
    4515 A       4515       Ar      Ar      Ar      0.000000 39.950000
    4516 A       4516       Ar      Ar      Ar      0.000000 39.950000
    4517 A       4517       Ar      Ar      Ar      0.000000 39.950000
    4518 A       4518       Ar      Ar      Ar      0.000000 39.950000
    4519 A       4519       Ar      Ar      Ar      0.000000 39.950000
    4520 A       4520       Ar      Ar      Ar      0.000000 39.950000
    4521 A       4521       Ar      Ar      Ar      0.000000 39.950000
    4522 A       4522       Ar      Ar      Ar      0.000000 39.950000
    4523 A       4523       Ar      Ar      Ar      0.000000 39.950000
    4524 A       4524       Ar      Ar      Ar      0.000000 39.950000
    4525 A       4525       Ar      Ar      Ar      0.000000 39.950000
    4526 A       4526       Ar      Ar      Ar      0.000000 39.950000
    4527 A       4527       Ar      Ar      Ar      0.000000 39.950000
    4528 A       4528       Ar      Ar      Ar      0.000000 39.950000
    4529 A       4529       Ar      Ar      Ar      0.000000 39.950000
    4530 A       4530       Ar      Ar      Ar      0.000000 39.950000
    4531 A       4531       Ar      Ar      Ar      0.000000 39.950000
    4532 A       4532       Ar      Ar      Ar      0.000000 39.950000
    4533 A       4533       Ar      Ar      Ar      0.000000 39.950000
    4534 A       4534       Ar      Ar      Ar      0.000000 39.950000
    4535 A       4535       Ar      Ar      Ar      0.000000 39.950000
    4536 A       4536       Ar      Ar      Ar      0.000000 39.950000
    4537 A       4537       Ar      Ar      Ar      0.000000 39.950000
    4538 A       4538       Ar      Ar      Ar      0.000000 39.950000
    4539 A       4539       Ar      Ar      Ar      0.000000 39.950000
    4540 A       4540       Ar      Ar      Ar      0.000000 39.950000
    4541 A       4541       Ar      Ar      Ar      0.000000 39.950000
    4542 A       4542       Ar      Ar      Ar      0.000000 39.950000
    4543 A       4543       Ar      Ar      Ar      0.000000 39.950000
    4544 A       4544       Ar      Ar      Ar      0.000000 39.950000
    4545 A       4545       Ar      Ar      Ar      0.000000 39.950000
    4546 A       4546       Ar      Ar      Ar      0.000000 39.950000
    4547 A       4547       Ar      Ar      Ar      0.000000 39.950000
    4548 A       4548       Ar      Ar      Ar      0.000000 39.950000
    4549 A       4549       Ar      Ar      Ar      0.000000 39.950000
    4550 A       4550       Ar      Ar      Ar      0.000000 39.950000
    4551 A       4551       Ar      Ar      Ar      0.000000 39.950000
    4552 A       4552       Ar      Ar      Ar      0.000000 39.950000
    4553 A       4553       Ar      Ar      Ar      0.000000 39.950000
    4554 A       4554       Ar      Ar      Ar      0.000000 39.950000
    4555 A       4555       Ar      Ar      Ar      0.000000 39.950000
    4556 A       4556       Ar      Ar      Ar      0.000000 39.950000
    4557 A       4557       Ar      Ar      Ar      0.000000 39.950000
    4558 A       4558       Ar      Ar      Ar      0.000000 39.950000
    4559 A       4559       Ar      Ar      Ar      0.000000 39.950000
    4560 A       4560       Ar      Ar      Ar      0.000000 39.950000
    4561 A       4561       Ar      Ar      Ar      0.000000 39.950000
    4562 A       4562       Ar      Ar      Ar      0.000000 39.950000
    4563 A       4563       Ar      Ar      Ar      0.000000 39.950000
    4564 A       4564       Ar      Ar      Ar      0.000000 39.950000
    4565 A       4565       Ar      Ar      Ar      0.000000 39.950000
    4566 A       4566       Ar      Ar      Ar      0.000000 39.950000
    4567 A       4567       Ar      Ar      Ar      0.000000 39.950000
    4568 A       4568       Ar      Ar      Ar      0.000000 39.950000
    4569 A       4569       Ar      Ar      Ar      0.000000 39.950000
    4570 A       4570       Ar      Ar      Ar      0.000000 39.950000
    4571 A       4571       Ar      Ar      Ar      0.000000 39.950000
    4572 A       4572       Ar      Ar      Ar      0.000000 39.950000
    4573 A       4573       Ar      Ar      Ar      0.000000 39.950000
    4574 A       4574       Ar      Ar      Ar      0.000000 39.950000
    4575 A       4575       Ar      Ar      Ar      0.000000 39.950000
    4576 A       4576       Ar      Ar      Ar      0.000000 39.950000
    4577 A       4577       Ar      Ar      Ar      0.000000 39.950000
    4578 A       4578       Ar      Ar      Ar      0.000000 39.950000
    4579 A       4579       Ar      Ar      Ar      0.000000 39.950000
    4580 A       4580       Ar      Ar      Ar      0.000000 39.950000
    4581 A       4581       Ar      Ar      Ar      0.000000 39.950000
    4582 A       4582       Ar      Ar      Ar      0.000000 39.950000
    4583 A       4583       Ar      Ar      Ar      0.000000 39.950000
    4584 A       4584       Ar      Ar      Ar      0.000000 39.950000
    4585 A       4585       Ar      Ar      Ar      0.000000 39.950000
    4586 A       4586       Ar      Ar      Ar      0.000000 39.950000
    4587 A       4587       Ar      Ar      Ar      0.000000 39.950000
    4588 A       4588       Ar      Ar      Ar      0.000000 39.950000
    4589 A       4589       Ar      Ar      Ar      0.000000 39.950000
    4590 A       4590       Ar      Ar      Ar      0.000000 39.950000
    4591 A       4591       Ar      Ar      Ar      0.000000 39.950000
    4592 A       4592       Ar      Ar      Ar      0.000000 39.950000
    4593 A       4593       Ar      Ar      Ar      0.000000 39.950000
    4594 A       4594       Ar      Ar      Ar      0.000000 39.950000
    4595 A       4595       Ar      Ar      Ar      0.000000 39.950000
    4596 A       4596       Ar      Ar      Ar      0.000000 39.950000
    4597 A       4597       Ar      Ar      Ar      0.000000 39.950000
    4598 A       4598       Ar      Ar      Ar      0.000000 39.950000
    4599 A       4599       Ar      Ar      Ar      0.000000 39.950000
    4600 A       4600       Ar      Ar      Ar      0.000000 39.950000
    4601 A       4601       Ar      Ar      Ar      0.000000 39.950000
    4602 A       4602       Ar      Ar      Ar      0.000000 39.950000
    4603 A       4603       Ar      Ar      Ar      0.000000 39.950000
    4604 A       4604       Ar      Ar      Ar      0.000000 39.950000
    4605 A       4605       Ar      Ar      Ar      0.000000 39.950000
    4606 A       4606       Ar      Ar      Ar      0.000000 39.950000
    4607 A       4607       Ar      Ar      Ar      0.000000 39.950000
    4608 A       4608       Ar      Ar      Ar      0.000000 39.950000
    4609 A       4609       Ar      Ar      Ar      0.000000 39.950000
    4610 A       4610       Ar      Ar      Ar      0.000000 39.950000
    4611 A       4611       Ar      Ar      Ar      0.000000 39.950000
    4612 A       4612       Ar      Ar      Ar      0.000000 39.950000
    4613 A       4613       Ar      Ar      Ar      0.000000 39.950000
    4614 A       4614       Ar      Ar      Ar      0.000000 39.950000
    4615 A       4615       Ar      Ar      Ar      0.000000 39.950000
    4616 A       4616       Ar      Ar      Ar      0.000000 39.950000
    4617 A       4617       Ar      Ar      Ar      0.000000 39.950000
    4618 A       4618       Ar      Ar      Ar      0.000000 39.950000
    4619 A       4619       Ar      Ar      Ar      0.000000 39.950000
    4620 A       4620       Ar      Ar      Ar      0.000000 39.950000
    4621 A       4621       Ar      Ar      Ar      0.000000 39.950000
    4622 A       4622       Ar      Ar      Ar      0.000000 39.950000
    4623 A       4623       Ar      Ar      Ar      0.000000 39.950000
    4624 A       4624       Ar      Ar      Ar      0.000000 39.950000
    4625 A       4625       Ar      Ar      Ar      0.000000 39.950000
    4626 A       4626       Ar      Ar      Ar      0.000000 39.950000
    4627 A       4627       Ar      Ar      Ar      0.000000 39.950000
    4628 A       4628       Ar      Ar      Ar      0.000000 39.950000
    4629 A       4629       Ar      Ar      Ar      0.000000 39.950000
    4630 A       4630       Ar      Ar      Ar      0.000000 39.950000
    4631 A       4631       Ar      Ar      Ar      0.000000 39.950000
    4632 A       4632       Ar      Ar      Ar      0.000000 39.950000
    4633 A       4633       Ar      Ar      Ar      0.000000 39.950000
    4634 A       4634       Ar      Ar      Ar      0.000000 39.950000
    4635 A       4635       Ar      Ar      Ar      0.000000 39.950000
    4636 A       4636       Ar      Ar      Ar      0.000000 39.950000
    4637 A       4637       Ar      Ar      Ar      0.000000 39.950000
    4638 A       4638       Ar      Ar      Ar      0.000000 39.950000
    4639 A       4639       Ar      Ar      Ar      0.000000 39.950000
    4640 A       4640       Ar      Ar      Ar      0.000000 39.950000
    4641 A       4641       Ar      Ar      Ar      0.000000 39.950000
    4642 A       4642       Ar      Ar      Ar      0.000000 39.950000
    4643 A       4643       Ar      Ar      Ar      0.000000 39.950000
    4644 A       4644       Ar      Ar      Ar      0.000000 39.950000
    4645 A       4645       Ar      Ar      Ar      0.000000 39.950000
    4646 A       4646       Ar      Ar      Ar      0.000000 39.950000
    4647 A       4647       Ar      Ar      Ar      0.000000 39.950000
    4648 A       4648       Ar      Ar      Ar      0.000000 39.950000
    4649 A       4649       Ar      Ar      Ar      0.000000 39.950000
    4650 A       4650       Ar      Ar      Ar      0.000000 39.950000
    4651 A       4651       Ar      Ar      Ar      0.000000 39.950000
    4652 A       4652       Ar      Ar      Ar      0.000000 39.950000
    4653 A       4653       Ar      Ar      Ar      0.000000 39.950000
    4654 A       4654       Ar      Ar      Ar      0.000000 39.950000
    4655 A       4655       Ar      Ar      Ar      0.000000 39.950000
    4656 A       4656       Ar      Ar      Ar      0.000000 39.950000
    4657 A       4657       Ar      Ar      Ar      0.000000 39.950000
    4658 A       4658       Ar      Ar      Ar      0.000000 39.950000
    4659 A       4659       Ar      Ar      Ar      0.000000 39.950000
    4660 A       4660       Ar      Ar      Ar      0.000000 39.950000
    4661 A       4661       Ar      Ar      Ar      0.000000 39.950000
    4662 A       4662       Ar      Ar      Ar      0.000000 39.950000
    4663 A       4663       Ar      Ar      Ar      0.000000 39.950000
    4664 A       4664       Ar      Ar      Ar      0.000000 39.950000
    4665 A       4665       Ar      Ar      Ar      0.000000 39.950000
    4666 A       4666       Ar      Ar      Ar      0.000000 39.950000
    4667 A       4667       Ar      Ar      Ar      0.000000 39.950000
    4668 A       4668       Ar      Ar      Ar      0.000000 39.950000
    4669 A       4669       Ar      Ar      Ar      0.000000 39.950000
    4670 A       4670       Ar      Ar      Ar      0.000000 39.950000
    4671 A       4671       Ar      Ar      Ar      0.000000 39.950000
    4672 A       4672       Ar      Ar      Ar      0.000000 39.950000
    4673 A       4673       Ar      Ar      Ar      0.000000 39.950000
    4674 A       4674       Ar      Ar      Ar      0.000000 39.950000
    4675 A       4675       Ar      Ar      Ar      0.000000 39.950000
    4676 A       4676       Ar      Ar      Ar      0.000000 39.950000
    4677 A       4677       Ar      Ar      Ar      0.000000 39.950000
    4678 A       4678       Ar      Ar      Ar      0.000000 39.950000
    4679 A       4679       Ar      Ar      Ar      0.000000 39.950000
    4680 A       4680       Ar      Ar      Ar      0.000000 39.950000
    4681 A       4681       Ar      Ar      Ar      0.000000 39.950000
    4682 A       4682       Ar      Ar      Ar      0.000000 39.950000
    4683 A       4683       Ar      Ar      Ar      0.000000 39.950000
    4684 A       4684       Ar      Ar      Ar      0.000000 39.950000
    4685 A       4685       Ar      Ar      Ar      0.000000 39.950000
    4686 A       4686       Ar      Ar      Ar      0.000000 39.950000
    4687 A       4687       Ar      Ar      Ar      0.000000 39.950000
    4688 A       4688       Ar      Ar      Ar      0.000000 39.950000
    4689 A       4689       Ar      Ar      Ar      0.000000 39.950000
    4690 A       4690       Ar      Ar      Ar      0.000000 39.950000
    4691 A       4691       Ar      Ar      Ar      0.000000 39.950000
    4692 A       4692       Ar      Ar      Ar      0.000000 39.950000
    4693 A       4693       Ar      Ar      Ar      0.000000 39.950000
    4694 A       4694       Ar      Ar      Ar      0.000000 39.950000
    4695 A       4695       Ar      Ar      Ar      0.000000 39.950000
    4696 A       4696       Ar      Ar      Ar      0.000000 39.950000
    4697 A       4697       Ar      Ar      Ar      0.000000 39.950000
    4698 A       4698       Ar      Ar      Ar      0.000000 39.950000
    4699 A       4699       Ar      Ar      Ar      0.000000 39.950000
    4700 A       4700       Ar      Ar      Ar      0.000000 39.950000
    4701 A       4701       Ar      Ar      Ar      0.000000 39.950000
    4702 A       4702       Ar      Ar      Ar      0.000000 39.950000
    4703 A       4703       Ar      Ar      Ar      0.000000 39.950000
    4704 A       4704       Ar      Ar      Ar      0.000000 39.950000
    4705 A       4705       Ar      Ar      Ar      0.000000 39.950000
    4706 A       4706       Ar      Ar      Ar      0.000000 39.950000
    4707 A       4707       Ar      Ar      Ar      0.000000 39.950000
    4708 A       4708       Ar      Ar      Ar      0.000000 39.950000
    4709 A       4709       Ar      Ar      Ar      0.000000 39.950000
    4710 A       4710       Ar      Ar      Ar      0.000000 39.950000
    4711 A       4711       Ar      Ar      Ar      0.000000 39.950000
    4712 A       4712       Ar      Ar      Ar      0.000000 39.950000
    4713 A       4713       Ar      Ar      Ar      0.000000 39.950000
    4714 A       4714       Ar      Ar      Ar      0.000000 39.950000
    4715 A       4715       Ar      Ar      Ar      0.000000 39.950000
    4716 A       4716       Ar      Ar      Ar      0.000000 39.950000
    4717 A       4717       Ar      Ar      Ar      0.000000 39.950000
    4718 A       4718       Ar      Ar      Ar      0.000000 39.950000
    4719 A       4719       Ar      Ar      Ar      0.000000 39.950000
    4720 A       4720       Ar      Ar      Ar      0.000000 39.950000
    4721 A       4721       Ar      Ar      Ar      0.000000 39.950000
    4722 A       4722       Ar      Ar      Ar      0.000000 39.950000
    4723 A       4723       Ar      Ar      Ar      0.000000 39.950000
    4724 A       4724       Ar      Ar      Ar      0.000000 39.950000
    4725 A       4725       Ar      Ar      Ar      0.000000 39.950000
    4726 A       4726       Ar      Ar      Ar      0.000000 39.950000
    4727 A       4727       Ar      Ar      Ar      0.000000 39.950000
    4728 A       4728       Ar      Ar      Ar      0.000000 39.950000
    4729 A       4729       Ar      Ar      Ar      0.000000 39.950000
    4730 A       4730       Ar      Ar      Ar      0.000000 39.950000
    4731 A       4731       Ar      Ar      Ar      0.000000 39.950000
    4732 A       4732       Ar      Ar      Ar      0.000000 39.950000
    4733 A       4733       Ar      Ar      Ar      0.000000 39.950000
    4734 A       4734       Ar      Ar      Ar      0.000000 39.950000
    4735 A       4735       Ar      Ar      Ar      0.000000 39.950000
    4736 A       4736       Ar      Ar      Ar      0.000000 39.950000
    4737 A       4737       Ar      Ar      Ar      0.000000 39.950000
    4738 A       4738       Ar      Ar      Ar      0.000000 39.950000
    4739 A       4739       Ar      Ar      Ar      0.000000 39.950000
    4740 A       4740       Ar      Ar      Ar      0.000000 39.950000
    4741 A       4741       Ar      Ar      Ar      0.000000 39.950000
    4742 A       4742       Ar      Ar      Ar      0.000000 39.950000
    4743 A       4743       Ar      Ar      Ar      0.000000 39.950000
    4744 A       4744       Ar      Ar      Ar      0.000000 39.950000
    4745 A       4745       Ar      Ar      Ar      0.000000 39.950000
    4746 A       4746       Ar      Ar      Ar      0.000000 39.950000
    4747 A       4747       Ar      Ar      Ar      0.000000 39.950000
    4748 A       4748       Ar      Ar      Ar      0.000000 39.950000
    4749 A       4749       Ar      Ar      Ar      0.000000 39.950000
    4750 A       4750       Ar      Ar      Ar      0.000000 39.950000
    4751 A       4751       Ar      Ar      Ar      0.000000 39.950000
    4752 A       4752       Ar      Ar      Ar      0.000000 39.950000
    4753 A       4753       Ar      Ar      Ar      0.000000 39.950000
    4754 A       4754       Ar      Ar      Ar      0.000000 39.950000
    4755 A       4755       Ar      Ar      Ar      0.000000 39.950000
    4756 A       4756       Ar      Ar      Ar      0.000000 39.950000
    4757 A       4757       Ar      Ar      Ar      0.000000 39.950000
    4758 A       4758       Ar      Ar      Ar      0.000000 39.950000
    4759 A       4759       Ar      Ar      Ar      0.000000 39.950000
    4760 A       4760       Ar      Ar      Ar      0.000000 39.950000
    4761 A       4761       Ar      Ar      Ar      0.000000 39.950000
    4762 A       4762       Ar      Ar      Ar      0.000000 39.950000
    4763 A       4763       Ar      Ar      Ar      0.000000 39.950000
    4764 A       4764       Ar      Ar      Ar      0.000000 39.950000
    4765 A       4765       Ar      Ar      Ar      0.000000 39.950000
    4766 A       4766       Ar      Ar      Ar      0.000000 39.950000
    4767 A       4767       Ar      Ar      Ar      0.000000 39.950000
    4768 A       4768       Ar      Ar      Ar      0.000000 39.950000
    4769 A       4769       Ar      Ar      Ar      0.000000 39.950000
    4770 A       4770       Ar      Ar      Ar      0.000000 39.950000
    4771 A       4771       Ar      Ar      Ar      0.000000 39.950000
    4772 A       4772       Ar      Ar      Ar      0.000000 39.950000
    4773 A       4773       Ar      Ar      Ar      0.000000 39.950000
    4774 A       4774       Ar      Ar      Ar      0.000000 39.950000
    4775 A       4775       Ar      Ar      Ar      0.000000 39.950000
    4776 A       4776       Ar      Ar      Ar      0.000000 39.950000
    4777 A       4777       Ar      Ar      Ar      0.000000 39.950000
    4778 A       4778       Ar      Ar      Ar      0.000000 39.950000
    4779 A       4779       Ar      Ar      Ar      0.000000 39.950000
    4780 A       4780       Ar      Ar      Ar      0.000000 39.950000
    4781 A       4781       Ar      Ar      Ar      0.000000 39.950000
    4782 A       4782       Ar      Ar      Ar      0.000000 39.950000
    4783 A       4783       Ar      Ar      Ar      0.000000 39.950000
    4784 A       4784       Ar      Ar      Ar      0.000000 39.950000
    4785 A       4785       Ar      Ar      Ar      0.000000 39.950000
    4786 A       4786       Ar      Ar      Ar      0.000000 39.950000
    4787 A       4787       Ar      Ar      Ar      0.000000 39.950000
    4788 A       4788       Ar      Ar      Ar      0.000000 39.950000
    4789 A       4789       Ar      Ar      Ar      0.000000 39.950000
    4790 A       4790       Ar      Ar      Ar      0.000000 39.950000
    4791 A       4791       Ar      Ar      Ar      0.000000 39.950000
    4792 A       4792       Ar      Ar      Ar      0.000000 39.950000
    4793 A       4793       Ar      Ar      Ar      0.000000 39.950000
    4794 A       4794       Ar      Ar      Ar      0.000000 39.950000
    4795 A       4795       Ar      Ar      Ar      0.000000 39.950000
    4796 A       4796       Ar      Ar      Ar      0.000000 39.950000
    4797 A       4797       Ar      Ar      Ar      0.000000 39.950000
    4798 A       4798       Ar      Ar      Ar      0.000000 39.950000
    4799 A       4799       Ar      Ar      Ar      0.000000 39.950000
    4800 A       4800       Ar      Ar      Ar      0.000000 39.950000
    4801 A       4801       Ar      Ar      Ar      0.000000 39.950000
    4802 A       4802       Ar      Ar      Ar      0.000000 39.950000
    4803 A       4803       Ar      Ar      Ar      0.000000 39.950000
    4804 A       4804       Ar      Ar      Ar      0.000000 39.950000
    4805 A       4805       Ar      Ar      Ar      0.000000 39.950000
    4806 A       4806       Ar      Ar      Ar      0.000000 39.950000
    4807 A       4807       Ar      Ar      Ar      0.000000 39.950000
    4808 A       4808       Ar      Ar      Ar      0.000000 39.950000
    4809 A       4809       Ar      Ar      Ar      0.000000 39.950000
    4810 A       4810       Ar      Ar      Ar      0.000000 39.950000
    4811 A       4811       Ar      Ar      Ar      0.000000 39.950000
    4812 A       4812       Ar      Ar      Ar      0.000000 39.950000
    4813 A       4813       Ar      Ar      Ar      0.000000 39.950000
    4814 A       4814       Ar      Ar      Ar      0.000000 39.950000
    4815 A       4815       Ar      Ar      Ar      0.000000 39.950000
    4816 A       4816       Ar      Ar      Ar      0.000000 39.950000
    4817 A       4817       Ar      Ar      Ar      0.000000 39.950000
    4818 A       4818       Ar      Ar      Ar      0.000000 39.950000
    4819 A       4819       Ar      Ar      Ar      0.000000 39.950000
    4820 A       4820       Ar      Ar      Ar      0.000000 39.950000
    4821 A       4821       Ar      Ar      Ar      0.000000 39.950000
    4822 A       4822       Ar      Ar      Ar      0.000000 39.950000
    4823 A       4823       Ar      Ar      Ar      0.000000 39.950000
    4824 A       4824       Ar      Ar      Ar      0.000000 39.950000
    4825 A       4825       Ar      Ar      Ar      0.000000 39.950000
    4826 A       4826       Ar      Ar      Ar      0.000000 39.950000
    4827 A       4827       Ar      Ar      Ar      0.000000 39.950000
    4828 A       4828       Ar      Ar      Ar      0.000000 39.950000
    4829 A       4829       Ar      Ar      Ar      0.000000 39.950000
    4830 A       4830       Ar      Ar      Ar      0.000000 39.950000
    4831 A       4831       Ar      Ar      Ar      0.000000 39.950000
    4832 A       4832       Ar      Ar      Ar      0.000000 39.950000
    4833 A       4833       Ar      Ar      Ar      0.000000 39.950000
    4834 A       4834       Ar      Ar      Ar      0.000000 39.950000
    4835 A       4835       Ar      Ar      Ar      0.000000 39.950000
    4836 A       4836       Ar      Ar      Ar      0.000000 39.950000
    4837 A       4837       Ar      Ar      Ar      0.000000 39.950000
    4838 A       4838       Ar      Ar      Ar      0.000000 39.950000
    4839 A       4839       Ar      Ar      Ar      0.000000 39.950000
    4840 A       4840       Ar      Ar      Ar      0.000000 39.950000
    4841 A       4841       Ar      Ar      Ar      0.000000 39.950000
    4842 A       4842       Ar      Ar      Ar      0.000000 39.950000
    4843 A       4843       Ar      Ar      Ar      0.000000 39.950000
    4844 A       4844       Ar      Ar      Ar      0.000000 39.950000
    4845 A       4845       Ar      Ar      Ar      0.000000 39.950000
    4846 A       4846       Ar      Ar      Ar      0.000000 39.950000
    4847 A       4847       Ar      Ar      Ar      0.000000 39.950000
    4848 A       4848       Ar      Ar      Ar      0.000000 39.950000
    4849 A       4849       Ar      Ar      Ar      0.000000 39.950000
    4850 A       4850       Ar      Ar      Ar      0.000000 39.950000
    4851 A       4851       Ar      Ar      Ar      0.000000 39.950000
    4852 A       4852       Ar      Ar      Ar      0.000000 39.950000
    4853 A       4853       Ar      Ar      Ar      0.000000 39.950000
    4854 A       4854       Ar      Ar      Ar      0.000000 39.950000
    4855 A       4855       Ar      Ar      Ar      0.000000 39.950000
    4856 A       4856       Ar      Ar      Ar      0.000000 39.950000
    4857 A       4857       Ar      Ar      Ar      0.000000 39.950000
    4858 A       4858       Ar      Ar      Ar      0.000000 39.950000
    4859 A       4859       Ar      Ar      Ar      0.000000 39.950000
    4860 A       4860       Ar      Ar      Ar      0.000000 39.950000
    4861 A       4861       Ar      Ar      Ar      0.000000 39.950000
    4862 A       4862       Ar      Ar      Ar      0.000000 39.950000
    4863 A       4863       Ar      Ar      Ar      0.000000 39.950000
    4864 A       4864       Ar      Ar      Ar      0.000000 39.950000
    4865 A       4865       Ar      Ar      Ar      0.000000 39.950000
    4866 A       4866       Ar      Ar      Ar      0.000000 39.950000
    4867 A       4867       Ar      Ar      Ar      0.000000 39.950000
    4868 A       4868       Ar      Ar      Ar      0.000000 39.950000
    4869 A       4869       Ar      Ar      Ar      0.000000 39.950000
    4870 A       4870       Ar      Ar      Ar      0.000000 39.950000
    4871 A       4871       Ar      Ar      Ar      0.000000 39.950000
    4872 A       4872       Ar      Ar      Ar      0.000000 39.950000
    4873 A       4873       Ar      Ar      Ar      0.000000 39.950000
    4874 A       4874       Ar      Ar      Ar      0.000000 39.950000
    4875 A       4875       Ar      Ar      Ar      0.000000 39.950000
    4876 A       4876       Ar      Ar      Ar      0.000000 39.950000
    4877 A       4877       Ar      Ar      Ar      0.000000 39.950000
    4878 A       4878       Ar      Ar      Ar      0.000000 39.950000
    4879 A       4879       Ar      Ar      Ar      0.000000 39.950000
    4880 A       4880       Ar      Ar      Ar      0.000000 39.950000
    4881 A       4881       Ar      Ar      Ar      0.000000 39.950000
    4882 A       4882       Ar      Ar      Ar      0.000000 39.950000
    4883 A       4883       Ar      Ar      Ar      0.000000 39.950000
    4884 A       4884       Ar      Ar      Ar      0.000000 39.950000
    4885 A       4885       Ar      Ar      Ar      0.000000 39.950000
    4886 A       4886       Ar      Ar      Ar      0.000000 39.950000
    4887 A       4887       Ar      Ar      Ar      0.000000 39.950000
    4888 A       4888       Ar      Ar      Ar      0.000000 39.950000
    4889 A       4889       Ar      Ar      Ar      0.000000 39.950000
    4890 A       4890       Ar      Ar      Ar      0.000000 39.950000
    4891 A       4891       Ar      Ar      Ar      0.000000 39.950000
    4892 A       4892       Ar      Ar      Ar      0.000000 39.950000
    4893 A       4893       Ar      Ar      Ar      0.000000 39.950000
    4894 A       4894       Ar      Ar      Ar      0.000000 39.950000
    4895 A       4895       Ar      Ar      Ar      0.000000 39.950000
    4896 A       4896       Ar      Ar      Ar      0.000000 39.950000
    4897 A       4897       Ar      Ar      Ar      0.000000 39.950000
    4898 A       4898       Ar      Ar      Ar      0.000000 39.950000
    4899 A       4899       Ar      Ar      Ar      0.000000 39.950000
    4900 A       4900       Ar      Ar      Ar      0.000000 39.950000
    4901 A       4901       Ar      Ar      Ar      0.000000 39.950000
    4902 A       4902       Ar      Ar      Ar      0.000000 39.950000
    4903 A       4903       Ar      Ar      Ar      0.000000 39.950000
    4904 A       4904       Ar      Ar      Ar      0.000000 39.950000
    4905 A       4905       Ar      Ar      Ar      0.000000 39.950000
    4906 A       4906       Ar      Ar      Ar      0.000000 39.950000
    4907 A       4907       Ar      Ar      Ar      0.000000 39.950000
    4908 A       4908       Ar      Ar      Ar      0.000000 39.950000
    4909 A       4909       Ar      Ar      Ar      0.000000 39.950000
    4910 A       4910       Ar      Ar      Ar      0.000000 39.950000
    4911 A       4911       Ar      Ar      Ar      0.000000 39.950000
    4912 A       4912       Ar      Ar      Ar      0.000000 39.950000
    4913 A       4913       Ar      Ar      Ar      0.000000 39.950000
    4914 A       4914       Ar      Ar      Ar      0.000000 39.950000
    4915 A       4915       Ar      Ar      Ar      0.000000 39.950000
    4916 A       4916       Ar      Ar      Ar      0.000000 39.950000
    4917 A       4917       Ar      Ar      Ar      0.000000 39.950000
    4918 A       4918       Ar      Ar      Ar      0.000000 39.950000
    4919 A       4919       Ar      Ar      Ar      0.000000 39.950000
    4920 A       4920       Ar      Ar      Ar      0.000000 39.950000
    4921 A       4921       Ar      Ar      Ar      0.000000 39.950000
    4922 A       4922       Ar      Ar      Ar      0.000000 39.950000
    4923 A       4923       Ar      Ar      Ar      0.000000 39.950000
    4924 A       4924       Ar      Ar      Ar      0.000000 39.950000
    4925 A       4925       Ar      Ar      Ar      0.000000 39.950000
    4926 A       4926       Ar      Ar      Ar      0.000000 39.950000
    4927 A       4927       Ar      Ar      Ar      0.000000 39.950000
    4928 A       4928       Ar      Ar      Ar      0.000000 39.950000
    4929 A       4929       Ar      Ar      Ar      0.000000 39.950000
    4930 A       4930       Ar      Ar      Ar      0.000000 39.950000
    4931 A       4931       Ar      Ar      Ar      0.000000 39.950000
    4932 A       4932       Ar      Ar      Ar      0.000000 39.950000
    4933 A       4933       Ar      Ar      Ar      0.000000 39.950000
    4934 A       4934       Ar      Ar      Ar      0.000000 39.950000
    4935 A       4935       Ar      Ar      Ar      0.000000 39.950000
    4936 A       4936       Ar      Ar      Ar      0.000000 39.950000
    4937 A       4937       Ar      Ar      Ar      0.000000 39.950000
    4938 A       4938       Ar      Ar      Ar      0.000000 39.950000
    4939 A       4939       Ar      Ar      Ar      0.000000 39.950000
    4940 A       4940       Ar      Ar      Ar      0.000000 39.950000
    4941 A       4941       Ar      Ar      Ar      0.000000 39.950000
    4942 A       4942       Ar      Ar      Ar      0.000000 39.950000
    4943 A       4943       Ar      Ar      Ar      0.000000 39.950000
    4944 A       4944       Ar      Ar      Ar      0.000000 39.950000
    4945 A       4945       Ar      Ar      Ar      0.000000 39.950000
    4946 A       4946       Ar      Ar      Ar      0.000000 39.950000
    4947 A       4947       Ar      Ar      Ar      0.000000 39.950000
    4948 A       4948       Ar      Ar      Ar      0.000000 39.950000
    4949 A       4949       Ar      Ar      Ar      0.000000 39.950000
    4950 A       4950       Ar      Ar      Ar      0.000000 39.950000
    4951 A       4951       Ar      Ar      Ar      0.000000 39.950000
    4952 A       4952       Ar      Ar      Ar      0.000000 39.950000
    4953 A       4953       Ar      Ar      Ar      0.000000 39.950000
    4954 A       4954       Ar      Ar      Ar      0.000000 39.950000
    4955 A       4955       Ar      Ar      Ar      0.000000 39.950000
    4956 A       4956       Ar      Ar      Ar      0.000000 39.950000
    4957 A       4957       Ar      Ar      Ar      0.000000 39.950000
    4958 A       4958       Ar      Ar      Ar      0.000000 39.950000
    4959 A       4959       Ar      Ar      Ar      0.000000 39.950000
    4960 A       4960       Ar      Ar      Ar      0.000000 39.950000
    4961 A       4961       Ar      Ar      Ar      0.000000 39.950000
    4962 A       4962       Ar      Ar      Ar      0.000000 39.950000
    4963 A       4963       Ar      Ar      Ar      0.000000 39.950000
    4964 A       4964       Ar      Ar      Ar      0.000000 39.950000
    4965 A       4965       Ar      Ar      Ar      0.000000 39.950000
    4966 A       4966       Ar      Ar      Ar      0.000000 39.950000
    4967 A       4967       Ar      Ar      Ar      0.000000 39.950000
    4968 A       4968       Ar      Ar      Ar      0.000000 39.950000
    4969 A       4969       Ar      Ar      Ar      0.000000 39.950000
    4970 A       4970       Ar      Ar      Ar      0.000000 39.950000
    4971 A       4971       Ar      Ar      Ar      0.000000 39.950000
    4972 A       4972       Ar      Ar      Ar      0.000000 39.950000
    4973 A       4973       Ar      Ar      Ar      0.000000 39.950000
    4974 A       4974       Ar      Ar      Ar      0.000000 39.950000
    4975 A       4975       Ar      Ar      Ar      0.000000 39.950000
    4976 A       4976       Ar      Ar      Ar      0.000000 39.950000
    4977 A       4977       Ar      Ar      Ar      0.000000 39.950000
    4978 A       4978       Ar      Ar      Ar      0.000000 39.950000
    4979 A       4979       Ar      Ar      Ar      0.000000 39.950000
    4980 A       4980       Ar      Ar      Ar      0.000000 39.950000
    4981 A       4981       Ar      Ar      Ar      0.000000 39.950000
    4982 A       4982       Ar      Ar      Ar      0.000000 39.950000
    4983 A       4983       Ar      Ar      Ar      0.000000 39.950000
    4984 A       4984       Ar      Ar      Ar      0.000000 39.950000
    4985 A       4985       Ar      Ar      Ar      0.000000 39.950000
    4986 A       4986       Ar      Ar      Ar      0.000000 39.950000
    4987 A       4987       Ar      Ar      Ar      0.000000 39.950000
    4988 A       4988       Ar      Ar      Ar      0.000000 39.950000
    4989 A       4989       Ar      Ar      Ar      0.000000 39.950000
    4990 A       4990       Ar      Ar      Ar      0.000000 39.950000
    4991 A       4991       Ar      Ar      Ar      0.000000 39.950000
    4992 A       4992       Ar      Ar      Ar      0.000000 39.950000
    4993 A       4993       Ar      Ar      Ar      0.000000 39.950000
    4994 A       4994       Ar      Ar      Ar      0.000000 39.950000
    4995 A       4995       Ar      Ar      Ar      0.000000 39.950000
    4996 A       4996       Ar      Ar      Ar      0.000000 39.950000
    4997 A       4997       Ar      Ar      Ar      0.000000 39.950000
    4998 A       4998       Ar      Ar      Ar      0.000000 39.950000
    4999 A       4999       Ar      Ar      Ar      0.000000 39.950000
    5000 A       5000       Ar      Ar      Ar      0.000000 39.950000
    5001 A       5001       Ar      Ar      Ar      0.000000 39.950000
    5002 A       5002       Ar      Ar      Ar      0.000000 39.950000
    5003 A       5003       Ar      Ar      Ar      0.000000 39.950000
    5004 A       5004       Ar      Ar      Ar      0.000000 39.950000
    5005 A       5005       Ar      Ar      Ar      0.000000 39.950000
    5006 A       5006       Ar      Ar      Ar      0.000000 39.950000
    5007 A       5007       Ar      Ar      Ar      0.000000 39.950000
    5008 A       5008       Ar      Ar      Ar      0.000000 39.950000
    5009 A       5009       Ar      Ar      Ar      0.000000 39.950000
    5010 A       5010       Ar      Ar      Ar      0.000000 39.950000
    5011 A       5011       Ar      Ar      Ar      0.000000 39.950000
    5012 A       5012       Ar      Ar      Ar      0.000000 39.950000
    5013 A       5013       Ar      Ar      Ar      0.000000 39.950000
    5014 A       5014       Ar      Ar      Ar      0.000000 39.950000
    5015 A       5015       Ar      Ar      Ar      0.000000 39.950000
    5016 A       5016       Ar      Ar      Ar      0.000000 39.950000
    5017 A       5017       Ar      Ar      Ar      0.000000 39.950000
    5018 A       5018       Ar      Ar      Ar      0.000000 39.950000
    5019 A       5019       Ar      Ar      Ar      0.000000 39.950000
    5020 A       5020       Ar      Ar      Ar      0.000000 39.950000
    5021 A       5021       Ar      Ar      Ar      0.000000 39.950000
    5022 A       5022       Ar      Ar      Ar      0.000000 39.950000
    5023 A       5023       Ar      Ar      Ar      0.000000 39.950000
    5024 A       5024       Ar      Ar      Ar      0.000000 39.950000
    5025 A       5025       Ar      Ar      Ar      0.000000 39.950000
    5026 A       5026       Ar      Ar      Ar      0.000000 39.950000
    5027 A       5027       Ar      Ar      Ar      0.000000 39.950000
    5028 A       5028       Ar      Ar      Ar      0.000000 39.950000
    5029 A       5029       Ar      Ar      Ar      0.000000 39.950000
    5030 A       5030       Ar      Ar      Ar      0.000000 39.950000
    5031 A       5031       Ar      Ar      Ar      0.000000 39.950000
    5032 A       5032       Ar      Ar      Ar      0.000000 39.950000
    5033 A       5033       Ar      Ar      Ar      0.000000 39.950000
    5034 A       5034       Ar      Ar      Ar      0.000000 39.950000
    5035 A       5035       Ar      Ar      Ar      0.000000 39.950000
    5036 A       5036       Ar      Ar      Ar      0.000000 39.950000
    5037 A       5037       Ar      Ar      Ar      0.000000 39.950000
    5038 A       5038       Ar      Ar      Ar      0.000000 39.950000
    5039 A       5039       Ar      Ar      Ar      0.000000 39.950000
    5040 A       5040       Ar      Ar      Ar      0.000000 39.950000
    5041 A       5041       Ar      Ar      Ar      0.000000 39.950000
    5042 A       5042       Ar      Ar      Ar      0.000000 39.950000
    5043 A       5043       Ar      Ar      Ar      0.000000 39.950000
    5044 A       5044       Ar      Ar      Ar      0.000000 39.950000
    5045 A       5045       Ar      Ar      Ar      0.000000 39.950000
    5046 A       5046       Ar      Ar      Ar      0.000000 39.950000
    5047 A       5047       Ar      Ar      Ar      0.000000 39.950000
    5048 A       5048       Ar      Ar      Ar      0.000000 39.950000
    5049 A       5049       Ar      Ar      Ar      0.000000 39.950000
    5050 A       5050       Ar      Ar      Ar      0.000000 39.950000
    5051 A       5051       Ar      Ar      Ar      0.000000 39.950000
    5052 A       5052       Ar      Ar      Ar      0.000000 39.950000
    5053 A       5053       Ar      Ar      Ar      0.000000 39.950000
    5054 A       5054       Ar      Ar      Ar      0.000000 39.950000
    5055 A       5055       Ar      Ar      Ar      0.000000 39.950000
    5056 A       5056       Ar      Ar      Ar      0.000000 39.950000
    5057 A       5057       Ar      Ar      Ar      0.000000 39.950000
    5058 A       5058       Ar      Ar      Ar      0.000000 39.950000
    5059 A       5059       Ar      Ar      Ar      0.000000 39.950000
    5060 A       5060       Ar      Ar      Ar      0.000000 39.950000
    5061 A       5061       Ar      Ar      Ar      0.000000 39.950000
    5062 A       5062       Ar      Ar      Ar      0.000000 39.950000
    5063 A       5063       Ar      Ar      Ar      0.000000 39.950000
    5064 A       5064       Ar      Ar      Ar      0.000000 39.950000
    5065 A       5065       Ar      Ar      Ar      0.000000 39.950000
    5066 A       5066       Ar      Ar      Ar      0.000000 39.950000
    5067 A       5067       Ar      Ar      Ar      0.000000 39.950000
    5068 A       5068       Ar      Ar      Ar      0.000000 39.950000
    5069 A       5069       Ar      Ar      Ar      0.000000 39.950000
    5070 A       5070       Ar      Ar      Ar      0.000000 39.950000
    5071 A       5071       Ar      Ar      Ar      0.000000 39.950000
    5072 A       5072       Ar      Ar      Ar      0.000000 39.950000
    5073 A       5073       Ar      Ar      Ar      0.000000 39.950000
    5074 A       5074       Ar      Ar      Ar      0.000000 39.950000
    5075 A       5075       Ar      Ar      Ar      0.000000 39.950000
    5076 A       5076       Ar      Ar      Ar      0.000000 39.950000
    5077 A       5077       Ar      Ar      Ar      0.000000 39.950000
    5078 A       5078       Ar      Ar      Ar      0.000000 39.950000
    5079 A       5079       Ar      Ar      Ar      0.000000 39.950000
    5080 A       5080       Ar      Ar      Ar      0.000000 39.950000
    5081 A       5081       Ar      Ar      Ar      0.000000 39.950000
    5082 A       5082       Ar      Ar      Ar      0.000000 39.950000
    5083 A       5083       Ar      Ar      Ar      0.000000 39.950000
    5084 A       5084       Ar      Ar      Ar      0.000000 39.950000
    5085 A       5085       Ar      Ar      Ar      0.000000 39.950000
    5086 A       5086       Ar      Ar      Ar      0.000000 39.950000
    5087 A       5087       Ar      Ar      Ar      0.000000 39.950000
    5088 A       5088       Ar      Ar      Ar      0.000000 39.950000
    5089 A       5089       Ar      Ar      Ar      0.000000 39.950000
    5090 A       5090       Ar      Ar      Ar      0.000000 39.950000
    5091 A       5091       Ar      Ar      Ar      0.000000 39.950000
    5092 A       5092       Ar      Ar      Ar      0.000000 39.950000
    5093 A       5093       Ar      Ar      Ar      0.000000 39.950000
    5094 A       5094       Ar      Ar      Ar      0.000000 39.950000
    5095 A       5095       Ar      Ar      Ar      0.000000 39.950000
    5096 A       5096       Ar      Ar      Ar      0.000000 39.950000
    5097 A       5097       Ar      Ar      Ar      0.000000 39.950000
    5098 A       5098       Ar      Ar      Ar      0.000000 39.950000
    5099 A       5099       Ar      Ar      Ar      0.000000 39.950000
    5100 A       5100       Ar      Ar      Ar      0.000000 39.950000
    5101 A       5101       Ar      Ar      Ar      0.000000 39.950000
    5102 A       5102       Ar      Ar      Ar      0.000000 39.950000
    5103 A       5103       Ar      Ar      Ar      0.000000 39.950000
    5104 A       5104       Ar      Ar      Ar      0.000000 39.950000
    5105 A       5105       Ar      Ar      Ar      0.000000 39.950000
    5106 A       5106       Ar      Ar      Ar      0.000000 39.950000
    5107 A       5107       Ar      Ar      Ar      0.000000 39.950000
    5108 A       5108       Ar      Ar      Ar      0.000000 39.950000
    5109 A       5109       Ar      Ar      Ar      0.000000 39.950000
    5110 A       5110       Ar      Ar      Ar      0.000000 39.950000
    5111 A       5111       Ar      Ar      Ar      0.000000 39.950000
    5112 A       5112       Ar      Ar      Ar      0.000000 39.950000
    5113 A       5113       Ar      Ar      Ar      0.000000 39.950000
    5114 A       5114       Ar      Ar      Ar      0.000000 39.950000
    5115 A       5115       Ar      Ar      Ar      0.000000 39.950000
    5116 A       5116       Ar      Ar      Ar      0.000000 39.950000
    5117 A       5117       Ar      Ar      Ar      0.000000 39.950000
    5118 A       5118       Ar      Ar      Ar      0.000000 39.950000
    5119 A       5119       Ar      Ar      Ar      0.000000 39.950000
    5120 A       5120       Ar      Ar      Ar      0.000000 39.950000
    5121 A       5121       Ar      Ar      Ar      0.000000 39.950000
    5122 A       5122       Ar      Ar      Ar      0.000000 39.950000
    5123 A       5123       Ar      Ar      Ar      0.000000 39.950000
    5124 A       5124       Ar      Ar      Ar      0.000000 39.950000
    5125 A       5125       Ar      Ar      Ar      0.000000 39.950000
    5126 A       5126       Ar      Ar      Ar      0.000000 39.950000
    5127 A       5127       Ar      Ar      Ar      0.000000 39.950000
    5128 A       5128       Ar      Ar      Ar      0.000000 39.950000
    5129 A       5129       Ar      Ar      Ar      0.000000 39.950000
    5130 A       5130       Ar      Ar      Ar      0.000000 39.950000
    5131 A       5131       Ar      Ar      Ar      0.000000 39.950000
    5132 A       5132       Ar      Ar      Ar      0.000000 39.950000
    5133 A       5133       Ar      Ar      Ar      0.000000 39.950000
    5134 A       5134       Ar      Ar      Ar      0.000000 39.950000
    5135 A       5135       Ar      Ar      Ar      0.000000 39.950000
    5136 A       5136       Ar      Ar      Ar      0.000000 39.950000
    5137 A       5137       Ar      Ar      Ar      0.000000 39.950000
    5138 A       5138       Ar      Ar      Ar      0.000000 39.950000
    5139 A       5139       Ar      Ar      Ar      0.000000 39.950000
    5140 A       5140       Ar      Ar      Ar      0.000000 39.950000
    5141 A       5141       Ar      Ar      Ar      0.000000 39.950000
    5142 A       5142       Ar      Ar      Ar      0.000000 39.950000
    5143 A       5143       Ar      Ar      Ar      0.000000 39.950000
    5144 A       5144       Ar      Ar      Ar      0.000000 39.950000
    5145 A       5145       Ar      Ar      Ar      0.000000 39.950000
    5146 A       5146       Ar      Ar      Ar      0.000000 39.950000
    5147 A       5147       Ar      Ar      Ar      0.000000 39.950000
    5148 A       5148       Ar      Ar      Ar      0.000000 39.950000
    5149 A       5149       Ar      Ar      Ar      0.000000 39.950000
    5150 A       5150       Ar      Ar      Ar      0.000000 39.950000
    5151 A       5151       Ar      Ar      Ar      0.000000 39.950000
    5152 A       5152       Ar      Ar      Ar      0.000000 39.950000
    5153 A       5153       Ar      Ar      Ar      0.000000 39.950000
    5154 A       5154       Ar      Ar      Ar      0.000000 39.950000
    5155 A       5155       Ar      Ar      Ar      0.000000 39.950000
    5156 A       5156       Ar      Ar      Ar      0.000000 39.950000
    5157 A       5157       Ar      Ar      Ar      0.000000 39.950000
    5158 A       5158       Ar      Ar      Ar      0.000000 39.950000
    5159 A       5159       Ar      Ar      Ar      0.000000 39.950000
    5160 A       5160       Ar      Ar      Ar      0.000000 39.950000
    5161 A       5161       Ar      Ar      Ar      0.000000 39.950000
    5162 A       5162       Ar      Ar      Ar      0.000000 39.950000
    5163 A       5163       Ar      Ar      Ar      0.000000 39.950000
    5164 A       5164       Ar      Ar      Ar      0.000000 39.950000
    5165 A       5165       Ar      Ar      Ar      0.000000 39.950000
    5166 A       5166       Ar      Ar      Ar      0.000000 39.950000
    5167 A       5167       Ar      Ar      Ar      0.000000 39.950000
    5168 A       5168       Ar      Ar      Ar      0.000000 39.950000
    5169 A       5169       Ar      Ar      Ar      0.000000 39.950000
    5170 A       5170       Ar      Ar      Ar      0.000000 39.950000
    5171 A       5171       Ar      Ar      Ar      0.000000 39.950000
    5172 A       5172       Ar      Ar      Ar      0.000000 39.950000
    5173 A       5173       Ar      Ar      Ar      0.000000 39.950000
    5174 A       5174       Ar      Ar      Ar      0.000000 39.950000
    5175 A       5175       Ar      Ar      Ar      0.000000 39.950000
    5176 A       5176       Ar      Ar      Ar      0.000000 39.950000
    5177 A       5177       Ar      Ar      Ar      0.000000 39.950000
    5178 A       5178       Ar      Ar      Ar      0.000000 39.950000
    5179 A       5179       Ar      Ar      Ar      0.000000 39.950000
    5180 A       5180       Ar      Ar      Ar      0.000000 39.950000
    5181 A       5181       Ar      Ar      Ar      0.000000 39.950000
    5182 A       5182       Ar      Ar      Ar      0.000000 39.950000
    5183 A       5183       Ar      Ar      Ar      0.000000 39.950000
    5184 A       5184       Ar      Ar      Ar      0.000000 39.950000
    5185 A       5185       Ar      Ar      Ar      0.000000 39.950000
    5186 A       5186       Ar      Ar      Ar      0.000000 39.950000
    5187 A       5187       Ar      Ar      Ar      0.000000 39.950000
    5188 A       5188       Ar      Ar      Ar      0.000000 39.950000
    5189 A       5189       Ar      Ar      Ar      0.000000 39.950000
    5190 A       5190       Ar      Ar      Ar      0.000000 39.950000
    5191 A       5191       Ar      Ar      Ar      0.000000 39.950000
    5192 A       5192       Ar      Ar      Ar      0.000000 39.950000
    5193 A       5193       Ar      Ar      Ar      0.000000 39.950000
    5194 A       5194       Ar      Ar      Ar      0.000000 39.950000
    5195 A       5195       Ar      Ar      Ar      0.000000 39.950000
    5196 A       5196       Ar      Ar      Ar      0.000000 39.950000
    5197 A       5197       Ar      Ar      Ar      0.000000 39.950000
    5198 A       5198       Ar      Ar      Ar      0.000000 39.950000
    5199 A       5199       Ar      Ar      Ar      0.000000 39.950000
    5200 A       5200       Ar      Ar      Ar      0.000000 39.950000
    5201 A       5201       Ar      Ar      Ar      0.000000 39.950000
    5202 A       5202       Ar      Ar      Ar      0.000000 39.950000
    5203 A       5203       Ar      Ar      Ar      0.000000 39.950000
    5204 A       5204       Ar      Ar      Ar      0.000000 39.950000
    5205 A       5205       Ar      Ar      Ar      0.000000 39.950000
    5206 A       5206       Ar      Ar      Ar      0.000000 39.950000
    5207 A       5207       Ar      Ar      Ar      0.000000 39.950000
    5208 A       5208       Ar      Ar      Ar      0.000000 39.950000
    5209 A       5209       Ar      Ar      Ar      0.000000 39.950000
    5210 A       5210       Ar      Ar      Ar      0.000000 39.950000
    5211 A       5211       Ar      Ar      Ar      0.000000 39.950000
    5212 A       5212       Ar      Ar      Ar      0.000000 39.950000
    5213 A       5213       Ar      Ar      Ar      0.000000 39.950000
    5214 A       5214       Ar      Ar      Ar      0.000000 39.950000
    5215 A       5215       Ar      Ar      Ar      0.000000 39.950000
    5216 A       5216       Ar      Ar      Ar      0.000000 39.950000
    5217 A       5217       Ar      Ar      Ar      0.000000 39.950000
    5218 A       5218       Ar      Ar      Ar      0.000000 39.950000
    5219 A       5219       Ar      Ar      Ar      0.000000 39.950000
    5220 A       5220       Ar      Ar      Ar      0.000000 39.950000
    5221 A       5221       Ar      Ar      Ar      0.000000 39.950000
    5222 A       5222       Ar      Ar      Ar      0.000000 39.950000
    5223 A       5223       Ar      Ar      Ar      0.000000 39.950000
    5224 A       5224       Ar      Ar      Ar      0.000000 39.950000
    5225 A       5225       Ar      Ar      Ar      0.000000 39.950000
    5226 A       5226       Ar      Ar      Ar      0.000000 39.950000
    5227 A       5227       Ar      Ar      Ar      0.000000 39.950000
    5228 A       5228       Ar      Ar      Ar      0.000000 39.950000
    5229 A       5229       Ar      Ar      Ar      0.000000 39.950000
    5230 A       5230       Ar      Ar      Ar      0.000000 39.950000
    5231 A       5231       Ar      Ar      Ar      0.000000 39.950000
    5232 A       5232       Ar      Ar      Ar      0.000000 39.950000
    5233 A       5233       Ar      Ar      Ar      0.000000 39.950000
    5234 A       5234       Ar      Ar      Ar      0.000000 39.950000
    5235 A       5235       Ar      Ar      Ar      0.000000 39.950000
    5236 A       5236       Ar      Ar      Ar      0.000000 39.950000
    5237 A       5237       Ar      Ar      Ar      0.000000 39.950000
    5238 A       5238       Ar      Ar      Ar      0.000000 39.950000
    5239 A       5239       Ar      Ar      Ar      0.000000 39.950000
    5240 A       5240       Ar      Ar      Ar      0.000000 39.950000
    5241 A       5241       Ar      Ar      Ar      0.000000 39.950000
    5242 A       5242       Ar      Ar      Ar      0.000000 39.950000
    5243 A       5243       Ar      Ar      Ar      0.000000 39.950000
    5244 A       5244       Ar      Ar      Ar      0.000000 39.950000
    5245 A       5245       Ar      Ar      Ar      0.000000 39.950000
    5246 A       5246       Ar      Ar      Ar      0.000000 39.950000
    5247 A       5247       Ar      Ar      Ar      0.000000 39.950000
    5248 A       5248       Ar      Ar      Ar      0.000000 39.950000
    5249 A       5249       Ar      Ar      Ar      0.000000 39.950000
    5250 A       5250       Ar      Ar      Ar      0.000000 39.950000
    5251 A       5251       Ar      Ar      Ar      0.000000 39.950000
    5252 A       5252       Ar      Ar      Ar      0.000000 39.950000
    5253 A       5253       Ar      Ar      Ar      0.000000 39.950000
    5254 A       5254       Ar      Ar      Ar      0.000000 39.950000
    5255 A       5255       Ar      Ar      Ar      0.000000 39.950000
    5256 A       5256       Ar      Ar      Ar      0.000000 39.950000
    5257 A       5257       Ar      Ar      Ar      0.000000 39.950000
    5258 A       5258       Ar      Ar      Ar      0.000000 39.950000
    5259 A       5259       Ar      Ar      Ar      0.000000 39.950000
    5260 A       5260       Ar      Ar      Ar      0.000000 39.950000
    5261 A       5261       Ar      Ar      Ar      0.000000 39.950000
    5262 A       5262       Ar      Ar      Ar      0.000000 39.950000
    5263 A       5263       Ar      Ar      Ar      0.000000 39.950000
    5264 A       5264       Ar      Ar      Ar      0.000000 39.950000
    5265 A       5265       Ar      Ar      Ar      0.000000 39.950000
    5266 A       5266       Ar      Ar      Ar      0.000000 39.950000
    5267 A       5267       Ar      Ar      Ar      0.000000 39.950000
    5268 A       5268       Ar      Ar      Ar      0.000000 39.950000
    5269 A       5269       Ar      Ar      Ar      0.000000 39.950000
    5270 A       5270       Ar      Ar      Ar      0.000000 39.950000
    5271 A       5271       Ar      Ar      Ar      0.000000 39.950000
    5272 A       5272       Ar      Ar      Ar      0.000000 39.950000
    5273 A       5273       Ar      Ar      Ar      0.000000 39.950000
    5274 A       5274       Ar      Ar      Ar      0.000000 39.950000
    5275 A       5275       Ar      Ar      Ar      0.000000 39.950000
    5276 A       5276       Ar      Ar      Ar      0.000000 39.950000
    5277 A       5277       Ar      Ar      Ar      0.000000 39.950000
    5278 A       5278       Ar      Ar      Ar      0.000000 39.950000
    5279 A       5279       Ar      Ar      Ar      0.000000 39.950000
    5280 A       5280       Ar      Ar      Ar      0.000000 39.950000
    5281 A       5281       Ar      Ar      Ar      0.000000 39.950000
    5282 A       5282       Ar      Ar      Ar      0.000000 39.950000
    5283 A       5283       Ar      Ar      Ar      0.000000 39.950000
    5284 A       5284       Ar      Ar      Ar      0.000000 39.950000
    5285 A       5285       Ar      Ar      Ar      0.000000 39.950000
    5286 A       5286       Ar      Ar      Ar      0.000000 39.950000
    5287 A       5287       Ar      Ar      Ar      0.000000 39.950000
    5288 A       5288       Ar      Ar      Ar      0.000000 39.950000
    5289 A       5289       Ar      Ar      Ar      0.000000 39.950000
    5290 A       5290       Ar      Ar      Ar      0.000000 39.950000
    5291 A       5291       Ar      Ar      Ar      0.000000 39.950000
    5292 A       5292       Ar      Ar      Ar      0.000000 39.950000
    5293 A       5293       Ar      Ar      Ar      0.000000 39.950000
    5294 A       5294       Ar      Ar      Ar      0.000000 39.950000
    5295 A       5295       Ar      Ar      Ar      0.000000 39.950000
    5296 A       5296       Ar      Ar      Ar      0.000000 39.950000
    5297 A       5297       Ar      Ar      Ar      0.000000 39.950000
    5298 A       5298       Ar      Ar      Ar      0.000000 39.950000
    5299 A       5299       Ar      Ar      Ar      0.000000 39.950000
    5300 A       5300       Ar      Ar      Ar      0.000000 39.950000
    5301 A       5301       Ar      Ar      Ar      0.000000 39.950000
    5302 A       5302       Ar      Ar      Ar      0.000000 39.950000
    5303 A       5303       Ar      Ar      Ar      0.000000 39.950000
    5304 A       5304       Ar      Ar      Ar      0.000000 39.950000
    5305 A       5305       Ar      Ar      Ar      0.000000 39.950000
    5306 A       5306       Ar      Ar      Ar      0.000000 39.950000
    5307 A       5307       Ar      Ar      Ar      0.000000 39.950000
    5308 A       5308       Ar      Ar      Ar      0.000000 39.950000
    5309 A       5309       Ar      Ar      Ar      0.000000 39.950000
    5310 A       5310       Ar      Ar      Ar      0.000000 39.950000
    5311 A       5311       Ar      Ar      Ar      0.000000 39.950000
    5312 A       5312       Ar      Ar      Ar      0.000000 39.950000
    5313 A       5313       Ar      Ar      Ar      0.000000 39.950000
    5314 A       5314       Ar      Ar      Ar      0.000000 39.950000
    5315 A       5315       Ar      Ar      Ar      0.000000 39.950000
    5316 A       5316       Ar      Ar      Ar      0.000000 39.950000
    5317 A       5317       Ar      Ar      Ar      0.000000 39.950000
    5318 A       5318       Ar      Ar      Ar      0.000000 39.950000
    5319 A       5319       Ar      Ar      Ar      0.000000 39.950000
    5320 A       5320       Ar      Ar      Ar      0.000000 39.950000
    5321 A       5321       Ar      Ar      Ar      0.000000 39.950000
    5322 A       5322       Ar      Ar      Ar      0.000000 39.950000
    5323 A       5323       Ar      Ar      Ar      0.000000 39.950000
    5324 A       5324       Ar      Ar      Ar      0.000000 39.950000
    5325 A       5325       Ar      Ar      Ar      0.000000 39.950000
    5326 A       5326       Ar      Ar      Ar      0.000000 39.950000
    5327 A       5327       Ar      Ar      Ar      0.000000 39.950000
    5328 A       5328       Ar      Ar      Ar      0.000000 39.950000
    5329 A       5329       Ar      Ar      Ar      0.000000 39.950000
    5330 A       5330       Ar      Ar      Ar      0.000000 39.950000
    5331 A       5331       Ar      Ar      Ar      0.000000 39.950000
    5332 A       5332       Ar      Ar      Ar      0.000000 39.950000
    5333 A       5333       Ar      Ar      Ar      0.000000 39.950000
    5334 A       5334       Ar      Ar      Ar      0.000000 39.950000
    5335 A       5335       Ar      Ar      Ar      0.000000 39.950000
    5336 A       5336       Ar      Ar      Ar      0.000000 39.950000
    5337 A       5337       Ar      Ar      Ar      0.000000 39.950000
    5338 A       5338       Ar      Ar      Ar      0.000000 39.950000
    5339 A       5339       Ar      Ar      Ar      0.000000 39.950000
    5340 A       5340       Ar      Ar      Ar      0.000000 39.950000
    5341 A       5341       Ar      Ar      Ar      0.000000 39.950000
    5342 A       5342       Ar      Ar      Ar      0.000000 39.950000
    5343 A       5343       Ar      Ar      Ar      0.000000 39.950000
    5344 A       5344       Ar      Ar      Ar      0.000000 39.950000
    5345 A       5345       Ar      Ar      Ar      0.000000 39.950000
    5346 A       5346       Ar      Ar      Ar      0.000000 39.950000
    5347 A       5347       Ar      Ar      Ar      0.000000 39.950000
    5348 A       5348       Ar      Ar      Ar      0.000000 39.950000
    5349 A       5349       Ar      Ar      Ar      0.000000 39.950000
    5350 A       5350       Ar      Ar      Ar      0.000000 39.950000
    5351 A       5351       Ar      Ar      Ar      0.000000 39.950000
    5352 A       5352       Ar      Ar      Ar      0.000000 39.950000
    5353 A       5353       Ar      Ar      Ar      0.000000 39.950000
    5354 A       5354       Ar      Ar      Ar      0.000000 39.950000
    5355 A       5355       Ar      Ar      Ar      0.000000 39.950000
    5356 A       5356       Ar      Ar      Ar      0.000000 39.950000
    5357 A       5357       Ar      Ar      Ar      0.000000 39.950000
    5358 A       5358       Ar      Ar      Ar      0.000000 39.950000
    5359 A       5359       Ar      Ar      Ar      0.000000 39.950000
    5360 A       5360       Ar      Ar      Ar      0.000000 39.950000
    5361 A       5361       Ar      Ar      Ar      0.000000 39.950000
    5362 A       5362       Ar      Ar      Ar      0.000000 39.950000
    5363 A       5363       Ar      Ar      Ar      0.000000 39.950000
    5364 A       5364       Ar      Ar      Ar      0.000000 39.950000
    5365 A       5365       Ar      Ar      Ar      0.000000 39.950000
    5366 A       5366       Ar      Ar      Ar      0.000000 39.950000
    5367 A       5367       Ar      Ar      Ar      0.000000 39.950000
    5368 A       5368       Ar      Ar      Ar      0.000000 39.950000
    5369 A       5369       Ar      Ar      Ar      0.000000 39.950000
    5370 A       5370       Ar      Ar      Ar      0.000000 39.950000
    5371 A       5371       Ar      Ar      Ar      0.000000 39.950000
    5372 A       5372       Ar      Ar      Ar      0.000000 39.950000
    5373 A       5373       Ar      Ar      Ar      0.000000 39.950000
    5374 A       5374       Ar      Ar      Ar      0.000000 39.950000
    5375 A       5375       Ar      Ar      Ar      0.000000 39.950000
    5376 A       5376       Ar      Ar      Ar      0.000000 39.950000
    5377 A       5377       Ar      Ar      Ar      0.000000 39.950000
    5378 A       5378       Ar      Ar      Ar      0.000000 39.950000
    5379 A       5379       Ar      Ar      Ar      0.000000 39.950000
    5380 A       5380       Ar      Ar      Ar      0.000000 39.950000
    5381 A       5381       Ar      Ar      Ar      0.000000 39.950000
    5382 A       5382       Ar      Ar      Ar      0.000000 39.950000
    5383 A       5383       Ar      Ar      Ar      0.000000 39.950000
    5384 A       5384       Ar      Ar      Ar      0.000000 39.950000
    5385 A       5385       Ar      Ar      Ar      0.000000 39.950000
    5386 A       5386       Ar      Ar      Ar      0.000000 39.950000
    5387 A       5387       Ar      Ar      Ar      0.000000 39.950000
    5388 A       5388       Ar      Ar      Ar      0.000000 39.950000
    5389 A       5389       Ar      Ar      Ar      0.000000 39.950000
    5390 A       5390       Ar      Ar      Ar      0.000000 39.950000
    5391 A       5391       Ar      Ar      Ar      0.000000 39.950000
    5392 A       5392       Ar      Ar      Ar      0.000000 39.950000
    5393 A       5393       Ar      Ar      Ar      0.000000 39.950000
    5394 A       5394       Ar      Ar      Ar      0.000000 39.950000
    5395 A       5395       Ar      Ar      Ar      0.000000 39.950000
    5396 A       5396       Ar      Ar      Ar      0.000000 39.950000
    5397 A       5397       Ar      Ar      Ar      0.000000 39.950000
    5398 A       5398       Ar      Ar      Ar      0.000000 39.950000
    5399 A       5399       Ar      Ar      Ar      0.000000 39.950000
    5400 A       5400       Ar      Ar      Ar      0.000000 39.950000
    5401 A       5401       Ar      Ar      Ar      0.000000 39.950000
    5402 A       5402       Ar      Ar      Ar      0.000000 39.950000
    5403 A       5403       Ar      Ar      Ar      0.000000 39.950000
    5404 A       5404       Ar      Ar      Ar      0.000000 39.950000
    5405 A       5405       Ar      Ar      Ar      0.000000 39.950000
    5406 A       5406       Ar      Ar      Ar      0.000000 39.950000
    5407 A       5407       Ar      Ar      Ar      0.000000 39.950000
    5408 A       5408       Ar      Ar      Ar      0.000000 39.950000
    5409 A       5409       Ar      Ar      Ar      0.000000 39.950000
    5410 A       5410       Ar      Ar      Ar      0.000000 39.950000
    5411 A       5411       Ar      Ar      Ar      0.000000 39.950000
    5412 A       5412       Ar      Ar      Ar      0.000000 39.950000
    5413 A       5413       Ar      Ar      Ar      0.000000 39.950000
    5414 A       5414       Ar      Ar      Ar      0.000000 39.950000
    5415 A       5415       Ar      Ar      Ar      0.000000 39.950000
    5416 A       5416       Ar      Ar      Ar      0.000000 39.950000
    5417 A       5417       Ar      Ar      Ar      0.000000 39.950000
    5418 A       5418       Ar      Ar      Ar      0.000000 39.950000
    5419 A       5419       Ar      Ar      Ar      0.000000 39.950000
    5420 A       5420       Ar      Ar      Ar      0.000000 39.950000
    5421 A       5421       Ar      Ar      Ar      0.000000 39.950000
    5422 A       5422       Ar      Ar      Ar      0.000000 39.950000
    5423 A       5423       Ar      Ar      Ar      0.000000 39.950000
    5424 A       5424       Ar      Ar      Ar      0.000000 39.950000
    5425 A       5425       Ar      Ar      Ar      0.000000 39.950000
    5426 A       5426       Ar      Ar      Ar      0.000000 39.950000
    5427 A       5427       Ar      Ar      Ar      0.000000 39.950000
    5428 A       5428       Ar      Ar      Ar      0.000000 39.950000
    5429 A       5429       Ar      Ar      Ar      0.000000 39.950000
    5430 A       5430       Ar      Ar      Ar      0.000000 39.950000
    5431 A       5431       Ar      Ar      Ar      0.000000 39.950000
    5432 A       5432       Ar      Ar      Ar      0.000000 39.950000
    5433 A       5433       Ar      Ar      Ar      0.000000 39.950000
    5434 A       5434       Ar      Ar      Ar      0.000000 39.950000
    5435 A       5435       Ar      Ar      Ar      0.000000 39.950000
    5436 A       5436       Ar      Ar      Ar      0.000000 39.950000
    5437 A       5437       Ar      Ar      Ar      0.000000 39.950000
    5438 A       5438       Ar      Ar      Ar      0.000000 39.950000
    5439 A       5439       Ar      Ar      Ar      0.000000 39.950000
    5440 A       5440       Ar      Ar      Ar      0.000000 39.950000
    5441 A       5441       Ar      Ar      Ar      0.000000 39.950000
    5442 A       5442       Ar      Ar      Ar      0.000000 39.950000
    5443 A       5443       Ar      Ar      Ar      0.000000 39.950000
    5444 A       5444       Ar      Ar      Ar      0.000000 39.950000
    5445 A       5445       Ar      Ar      Ar      0.000000 39.950000
    5446 A       5446       Ar      Ar      Ar      0.000000 39.950000
    5447 A       5447       Ar      Ar      Ar      0.000000 39.950000
    5448 A       5448       Ar      Ar      Ar      0.000000 39.950000
    5449 A       5449       Ar      Ar      Ar      0.000000 39.950000
    5450 A       5450       Ar      Ar      Ar      0.000000 39.950000
    5451 A       5451       Ar      Ar      Ar      0.000000 39.950000
    5452 A       5452       Ar      Ar      Ar      0.000000 39.950000
    5453 A       5453       Ar      Ar      Ar      0.000000 39.950000
    5454 A       5454       Ar      Ar      Ar      0.000000 39.950000
    5455 A       5455       Ar      Ar      Ar      0.000000 39.950000
    5456 A       5456       Ar      Ar      Ar      0.000000 39.950000
    5457 A       5457       Ar      Ar      Ar      0.000000 39.950000
    5458 A       5458       Ar      Ar      Ar      0.000000 39.950000
    5459 A       5459       Ar      Ar      Ar      0.000000 39.950000
    5460 A       5460       Ar      Ar      Ar      0.000000 39.950000
    5461 A       5461       Ar      Ar      Ar      0.000000 39.950000
    5462 A       5462       Ar      Ar      Ar      0.000000 39.950000
    5463 A       5463       Ar      Ar      Ar      0.000000 39.950000
    5464 A       5464       Ar      Ar      Ar      0.000000 39.950000
    5465 A       5465       Ar      Ar      Ar      0.000000 39.950000
    5466 A       5466       Ar      Ar      Ar      0.000000 39.950000
    5467 A       5467       Ar      Ar      Ar      0.000000 39.950000
    5468 A       5468       Ar      Ar      Ar      0.000000 39.950000
    5469 A       5469       Ar      Ar      Ar      0.000000 39.950000
    5470 A       5470       Ar      Ar      Ar      0.000000 39.950000
    5471 A       5471       Ar      Ar      Ar      0.000000 39.950000
    5472 A       5472       Ar      Ar      Ar      0.000000 39.950000
    5473 A       5473       Ar      Ar      Ar      0.000000 39.950000
    5474 A       5474       Ar      Ar      Ar      0.000000 39.950000
    5475 A       5475       Ar      Ar      Ar      0.000000 39.950000
    5476 A       5476       Ar      Ar      Ar      0.000000 39.950000
    5477 A       5477       Ar      Ar      Ar      0.000000 39.950000
    5478 A       5478       Ar      Ar      Ar      0.000000 39.950000
    5479 A       5479       Ar      Ar      Ar      0.000000 39.950000
    5480 A       5480       Ar      Ar      Ar      0.000000 39.950000
    5481 A       5481       Ar      Ar      Ar      0.000000 39.950000
    5482 A       5482       Ar      Ar      Ar      0.000000 39.950000
    5483 A       5483       Ar      Ar      Ar      0.000000 39.950000
    5484 A       5484       Ar      Ar      Ar      0.000000 39.950000
    5485 A       5485       Ar      Ar      Ar      0.000000 39.950000
    5486 A       5486       Ar      Ar      Ar      0.000000 39.950000
    5487 A       5487       Ar      Ar      Ar      0.000000 39.950000
    5488 A       5488       Ar      Ar      Ar      0.000000 39.950000
    5489 A       5489       Ar      Ar      Ar      0.000000 39.950000
    5490 A       5490       Ar      Ar      Ar      0.000000 39.950000
    5491 A       5491       Ar      Ar      Ar      0.000000 39.950000
    5492 A       5492       Ar      Ar      Ar      0.000000 39.950000
    5493 A       5493       Ar      Ar      Ar      0.000000 39.950000
    5494 A       5494       Ar      Ar      Ar      0.000000 39.950000
    5495 A       5495       Ar      Ar      Ar      0.000000 39.950000
    5496 A       5496       Ar      Ar      Ar      0.000000 39.950000
    5497 A       5497       Ar      Ar      Ar      0.000000 39.950000
    5498 A       5498       Ar      Ar      Ar      0.000000 39.950000
    5499 A       5499       Ar      Ar      Ar      0.000000 39.950000
    5500 A       5500       Ar      Ar      Ar      0.000000 39.950000
    5501 A       5501       Ar      Ar      Ar      0.000000 39.950000
    5502 A       5502       Ar      Ar      Ar      0.000000 39.950000
    5503 A       5503       Ar      Ar      Ar      0.000000 39.950000
    5504 A       5504       Ar      Ar      Ar      0.000000 39.950000
    5505 A       5505       Ar      Ar      Ar      0.000000 39.950000
    5506 A       5506       Ar      Ar      Ar      0.000000 39.950000
    5507 A       5507       Ar      Ar      Ar      0.000000 39.950000
    5508 A       5508       Ar      Ar      Ar      0.000000 39.950000
    5509 A       5509       Ar      Ar      Ar      0.000000 39.950000
    5510 A       5510       Ar      Ar      Ar      0.000000 39.950000
    5511 A       5511       Ar      Ar      Ar      0.000000 39.950000
    5512 A       5512       Ar      Ar      Ar      0.000000 39.950000
    5513 A       5513       Ar      Ar      Ar      0.000000 39.950000
    5514 A       5514       Ar      Ar      Ar      0.000000 39.950000
    5515 A       5515       Ar      Ar      Ar      0.000000 39.950000
    5516 A       5516       Ar      Ar      Ar      0.000000 39.950000
    5517 A       5517       Ar      Ar      Ar      0.000000 39.950000
    5518 A       5518       Ar      Ar      Ar      0.000000 39.950000
    5519 A       5519       Ar      Ar      Ar      0.000000 39.950000
    5520 A       5520       Ar      Ar      Ar      0.000000 39.950000
    5521 A       5521       Ar      Ar      Ar      0.000000 39.950000
    5522 A       5522       Ar      Ar      Ar      0.000000 39.950000
    5523 A       5523       Ar      Ar      Ar      0.000000 39.950000
    5524 A       5524       Ar      Ar      Ar      0.000000 39.950000
    5525 A       5525       Ar      Ar      Ar      0.000000 39.950000
    5526 A       5526       Ar      Ar      Ar      0.000000 39.950000
    5527 A       5527       Ar      Ar      Ar      0.000000 39.950000
    5528 A       5528       Ar      Ar      Ar      0.000000 39.950000
    5529 A       5529       Ar      Ar      Ar      0.000000 39.950000
    5530 A       5530       Ar      Ar      Ar      0.000000 39.950000
    5531 A       5531       Ar      Ar      Ar      0.000000 39.950000
    5532 A       5532       Ar      Ar      Ar      0.000000 39.950000
    5533 A       5533       Ar      Ar      Ar      0.000000 39.950000
    5534 A       5534       Ar      Ar      Ar      0.000000 39.950000
    5535 A       5535       Ar      Ar      Ar      0.000000 39.950000
    5536 A       5536       Ar      Ar      Ar      0.000000 39.950000
    5537 A       5537       Ar      Ar      Ar      0.000000 39.950000
    5538 A       5538       Ar      Ar      Ar      0.000000 39.950000
    5539 A       5539       Ar      Ar      Ar      0.000000 39.950000
    5540 A       5540       Ar      Ar      Ar      0.000000 39.950000
    5541 A       5541       Ar      Ar      Ar      0.000000 39.950000
    5542 A       5542       Ar      Ar      Ar      0.000000 39.950000
    5543 A       5543       Ar      Ar      Ar      0.000000 39.950000
    5544 A       5544       Ar      Ar      Ar      0.000000 39.950000
    5545 A       5545       Ar      Ar      Ar      0.000000 39.950000
    5546 A       5546       Ar      Ar      Ar      0.000000 39.950000
    5547 A       5547       Ar      Ar      Ar      0.000000 39.950000
    5548 A       5548       Ar      Ar      Ar      0.000000 39.950000
    5549 A       5549       Ar      Ar      Ar      0.000000 39.950000
    5550 A       5550       Ar      Ar      Ar      0.000000 39.950000
    5551 A       5551       Ar      Ar      Ar      0.000000 39.950000
    5552 A       5552       Ar      Ar      Ar      0.000000 39.950000
    5553 A       5553       Ar      Ar      Ar      0.000000 39.950000
    5554 A       5554       Ar      Ar      Ar      0.000000 39.950000
    5555 A       5555       Ar      Ar      Ar      0.000000 39.950000
    5556 A       5556       Ar      Ar      Ar      0.000000 39.950000
    5557 A       5557       Ar      Ar      Ar      0.000000 39.950000
    5558 A       5558       Ar      Ar      Ar      0.000000 39.950000
    5559 A       5559       Ar      Ar      Ar      0.000000 39.950000
    5560 A       5560       Ar      Ar      Ar      0.000000 39.950000
    5561 A       5561       Ar      Ar      Ar      0.000000 39.950000
    5562 A       5562       Ar      Ar      Ar      0.000000 39.950000
    5563 A       5563       Ar      Ar      Ar      0.000000 39.950000
    5564 A       5564       Ar      Ar      Ar      0.000000 39.950000
    5565 A       5565       Ar      Ar      Ar      0.000000 39.950000
    5566 A       5566       Ar      Ar      Ar      0.000000 39.950000
    5567 A       5567       Ar      Ar      Ar      0.000000 39.950000
    5568 A       5568       Ar      Ar      Ar      0.000000 39.950000
    5569 A       5569       Ar      Ar      Ar      0.000000 39.950000
    5570 A       5570       Ar      Ar      Ar      0.000000 39.950000
    5571 A       5571       Ar      Ar      Ar      0.000000 39.950000
    5572 A       5572       Ar      Ar      Ar      0.000000 39.950000
    5573 A       5573       Ar      Ar      Ar      0.000000 39.950000
    5574 A       5574       Ar      Ar      Ar      0.000000 39.950000
    5575 A       5575       Ar      Ar      Ar      0.000000 39.950000
    5576 A       5576       Ar      Ar      Ar      0.000000 39.950000
    5577 A       5577       Ar      Ar      Ar      0.000000 39.950000
    5578 A       5578       Ar      Ar      Ar      0.000000 39.950000
    5579 A       5579       Ar      Ar      Ar      0.000000 39.950000
    5580 A       5580       Ar      Ar      Ar      0.000000 39.950000
    5581 A       5581       Ar      Ar      Ar      0.000000 39.950000
    5582 A       5582       Ar      Ar      Ar      0.000000 39.950000
    5583 A       5583       Ar      Ar      Ar      0.000000 39.950000
    5584 A       5584       Ar      Ar      Ar      0.000000 39.950000
    5585 A       5585       Ar      Ar      Ar      0.000000 39.950000
    5586 A       5586       Ar      Ar      Ar      0.000000 39.950000
    5587 A       5587       Ar      Ar      Ar      0.000000 39.950000
    5588 A       5588       Ar      Ar      Ar      0.000000 39.950000
    5589 A       5589       Ar      Ar      Ar      0.000000 39.950000
    5590 A       5590       Ar      Ar      Ar      0.000000 39.950000
    5591 A       5591       Ar      Ar      Ar      0.000000 39.950000
    5592 A       5592       Ar      Ar      Ar      0.000000 39.950000
    5593 A       5593       Ar      Ar      Ar      0.000000 39.950000
    5594 A       5594       Ar      Ar      Ar      0.000000 39.950000
    5595 A       5595       Ar      Ar      Ar      0.000000 39.950000
    5596 A       5596       Ar      Ar      Ar      0.000000 39.950000
    5597 A       5597       Ar      Ar      Ar      0.000000 39.950000
    5598 A       5598       Ar      Ar      Ar      0.000000 39.950000
    5599 A       5599       Ar      Ar      Ar      0.000000 39.950000
    5600 A       5600       Ar      Ar      Ar      0.000000 39.950000
    5601 A       5601       Ar      Ar      Ar      0.000000 39.950000
    5602 A       5602       Ar      Ar      Ar      0.000000 39.950000
    5603 A       5603       Ar      Ar      Ar      0.000000 39.950000
    5604 A       5604       Ar      Ar      Ar      0.000000 39.950000
    5605 A       5605       Ar      Ar      Ar      0.000000 39.950000
    5606 A       5606       Ar      Ar      Ar      0.000000 39.950000
    5607 A       5607       Ar      Ar      Ar      0.000000 39.950000
    5608 A       5608       Ar      Ar      Ar      0.000000 39.950000
    5609 A       5609       Ar      Ar      Ar      0.000000 39.950000
    5610 A       5610       Ar      Ar      Ar      0.000000 39.950000
    5611 A       5611       Ar      Ar      Ar      0.000000 39.950000
    5612 A       5612       Ar      Ar      Ar      0.000000 39.950000
    5613 A       5613       Ar      Ar      Ar      0.000000 39.950000
    5614 A       5614       Ar      Ar      Ar      0.000000 39.950000
    5615 A       5615       Ar      Ar      Ar      0.000000 39.950000
    5616 A       5616       Ar      Ar      Ar      0.000000 39.950000
    5617 A       5617       Ar      Ar      Ar      0.000000 39.950000
    5618 A       5618       Ar      Ar      Ar      0.000000 39.950000
    5619 A       5619       Ar      Ar      Ar      0.000000 39.950000
    5620 A       5620       Ar      Ar      Ar      0.000000 39.950000
    5621 A       5621       Ar      Ar      Ar      0.000000 39.950000
    5622 A       5622       Ar      Ar      Ar      0.000000 39.950000
    5623 A       5623       Ar      Ar      Ar      0.000000 39.950000
    5624 A       5624       Ar      Ar      Ar      0.000000 39.950000
    5625 A       5625       Ar      Ar      Ar      0.000000 39.950000
    5626 A       5626       Ar      Ar      Ar      0.000000 39.950000
    5627 A       5627       Ar      Ar      Ar      0.000000 39.950000
    5628 A       5628       Ar      Ar      Ar      0.000000 39.950000
    5629 A       5629       Ar      Ar      Ar      0.000000 39.950000
    5630 A       5630       Ar      Ar      Ar      0.000000 39.950000
    5631 A       5631       Ar      Ar      Ar      0.000000 39.950000
    5632 A       5632       Ar      Ar      Ar      0.000000 39.950000
    5633 A       5633       Ar      Ar      Ar      0.000000 39.950000
    5634 A       5634       Ar      Ar      Ar      0.000000 39.950000
    5635 A       5635       Ar      Ar      Ar      0.000000 39.950000
    5636 A       5636       Ar      Ar      Ar      0.000000 39.950000
    5637 A       5637       Ar      Ar      Ar      0.000000 39.950000
    5638 A       5638       Ar      Ar      Ar      0.000000 39.950000
    5639 A       5639       Ar      Ar      Ar      0.000000 39.950000
    5640 A       5640       Ar      Ar      Ar      0.000000 39.950000
    5641 A       5641       Ar      Ar      Ar      0.000000 39.950000
    5642 A       5642       Ar      Ar      Ar      0.000000 39.950000
    5643 A       5643       Ar      Ar      Ar      0.000000 39.950000
    5644 A       5644       Ar      Ar      Ar      0.000000 39.950000
    5645 A       5645       Ar      Ar      Ar      0.000000 39.950000
    5646 A       5646       Ar      Ar      Ar      0.000000 39.950000
    5647 A       5647       Ar      Ar      Ar      0.000000 39.950000
    5648 A       5648       Ar      Ar      Ar      0.000000 39.950000
    5649 A       5649       Ar      Ar      Ar      0.000000 39.950000
    5650 A       5650       Ar      Ar      Ar      0.000000 39.950000
    5651 A       5651       Ar      Ar      Ar      0.000000 39.950000
    5652 A       5652       Ar      Ar      Ar      0.000000 39.950000
    5653 A       5653       Ar      Ar      Ar      0.000000 39.950000
    5654 A       5654       Ar      Ar      Ar      0.000000 39.950000
    5655 A       5655       Ar      Ar      Ar      0.000000 39.950000
    5656 A       5656       Ar      Ar      Ar      0.000000 39.950000
    5657 A       5657       Ar      Ar      Ar      0.000000 39.950000
    5658 A       5658       Ar      Ar      Ar      0.000000 39.950000
    5659 A       5659       Ar      Ar      Ar      0.000000 39.950000
    5660 A       5660       Ar      Ar      Ar      0.000000 39.950000
    5661 A       5661       Ar      Ar      Ar      0.000000 39.950000
    5662 A       5662       Ar      Ar      Ar      0.000000 39.950000
    5663 A       5663       Ar      Ar      Ar      0.000000 39.950000
    5664 A       5664       Ar      Ar      Ar      0.000000 39.950000
    5665 A       5665       Ar      Ar      Ar      0.000000 39.950000
    5666 A       5666       Ar      Ar      Ar      0.000000 39.950000
    5667 A       5667       Ar      Ar      Ar      0.000000 39.950000
    5668 A       5668       Ar      Ar      Ar      0.000000 39.950000
    5669 A       5669       Ar      Ar      Ar      0.000000 39.950000
    5670 A       5670       Ar      Ar      Ar      0.000000 39.950000
    5671 A       5671       Ar      Ar      Ar      0.000000 39.950000
    5672 A       5672       Ar      Ar      Ar      0.000000 39.950000
    5673 A       5673       Ar      Ar      Ar      0.000000 39.950000
    5674 A       5674       Ar      Ar      Ar      0.000000 39.950000
    5675 A       5675       Ar      Ar      Ar      0.000000 39.950000
    5676 A       5676       Ar      Ar      Ar      0.000000 39.950000
    5677 A       5677       Ar      Ar      Ar      0.000000 39.950000
    5678 A       5678       Ar      Ar      Ar      0.000000 39.950000
    5679 A       5679       Ar      Ar      Ar      0.000000 39.950000
    5680 A       5680       Ar      Ar      Ar      0.000000 39.950000
    5681 A       5681       Ar      Ar      Ar      0.000000 39.950000
    5682 A       5682       Ar      Ar      Ar      0.000000 39.950000
    5683 A       5683       Ar      Ar      Ar      0.000000 39.950000
    5684 A       5684       Ar      Ar      Ar      0.000000 39.950000
    5685 A       5685       Ar      Ar      Ar      0.000000 39.950000
    5686 A       5686       Ar      Ar      Ar      0.000000 39.950000
    5687 A       5687       Ar      Ar      Ar      0.000000 39.950000
    5688 A       5688       Ar      Ar      Ar      0.000000 39.950000
    5689 A       5689       Ar      Ar      Ar      0.000000 39.950000
    5690 A       5690       Ar      Ar      Ar      0.000000 39.950000
    5691 A       5691       Ar      Ar      Ar      0.000000 39.950000
    5692 A       5692       Ar      Ar      Ar      0.000000 39.950000
    5693 A       5693       Ar      Ar      Ar      0.000000 39.950000
    5694 A       5694       Ar      Ar      Ar      0.000000 39.950000
    5695 A       5695       Ar      Ar      Ar      0.000000 39.950000
    5696 A       5696       Ar      Ar      Ar      0.000000 39.950000
    5697 A       5697       Ar      Ar      Ar      0.000000 39.950000
    5698 A       5698       Ar      Ar      Ar      0.000000 39.950000
    5699 A       5699       Ar      Ar      Ar      0.000000 39.950000
    5700 A       5700       Ar      Ar      Ar      0.000000 39.950000
    5701 A       5701       Ar      Ar      Ar      0.000000 39.950000
    5702 A       5702       Ar      Ar      Ar      0.000000 39.950000
    5703 A       5703       Ar      Ar      Ar      0.000000 39.950000
    5704 A       5704       Ar      Ar      Ar      0.000000 39.950000
    5705 A       5705       Ar      Ar      Ar      0.000000 39.950000
    5706 A       5706       Ar      Ar      Ar      0.000000 39.950000
    5707 A       5707       Ar      Ar      Ar      0.000000 39.950000
    5708 A       5708       Ar      Ar      Ar      0.000000 39.950000
    5709 A       5709       Ar      Ar      Ar      0.000000 39.950000
    5710 A       5710       Ar      Ar      Ar      0.000000 39.950000
    5711 A       5711       Ar      Ar      Ar      0.000000 39.950000
    5712 A       5712       Ar      Ar      Ar      0.000000 39.950000
    5713 A       5713       Ar      Ar      Ar      0.000000 39.950000
    5714 A       5714       Ar      Ar      Ar      0.000000 39.950000
    5715 A       5715       Ar      Ar      Ar      0.000000 39.950000
    5716 A       5716       Ar      Ar      Ar      0.000000 39.950000
    5717 A       5717       Ar      Ar      Ar      0.000000 39.950000
    5718 A       5718       Ar      Ar      Ar      0.000000 39.950000
    5719 A       5719       Ar      Ar      Ar      0.000000 39.950000
    5720 A       5720       Ar      Ar      Ar      0.000000 39.950000
    5721 A       5721       Ar      Ar      Ar      0.000000 39.950000
    5722 A       5722       Ar      Ar      Ar      0.000000 39.950000
    5723 A       5723       Ar      Ar      Ar      0.000000 39.950000
    5724 A       5724       Ar      Ar      Ar      0.000000 39.950000
    5725 A       5725       Ar      Ar      Ar      0.000000 39.950000
    5726 A       5726       Ar      Ar      Ar      0.000000 39.950000
    5727 A       5727       Ar      Ar      Ar      0.000000 39.950000
    5728 A       5728       Ar      Ar      Ar      0.000000 39.950000
    5729 A       5729       Ar      Ar      Ar      0.000000 39.950000
    5730 A       5730       Ar      Ar      Ar      0.000000 39.950000
    5731 A       5731       Ar      Ar      Ar      0.000000 39.950000
    5732 A       5732       Ar      Ar      Ar      0.000000 39.950000
    5733 A       5733       Ar      Ar      Ar      0.000000 39.950000
    5734 A       5734       Ar      Ar      Ar      0.000000 39.950000
    5735 A       5735       Ar      Ar      Ar      0.000000 39.950000
    5736 A       5736       Ar      Ar      Ar      0.000000 39.950000
    5737 A       5737       Ar      Ar      Ar      0.000000 39.950000
    5738 A       5738       Ar      Ar      Ar      0.000000 39.950000
    5739 A       5739       Ar      Ar      Ar      0.000000 39.950000
    5740 A       5740       Ar      Ar      Ar      0.000000 39.950000
    5741 A       5741       Ar      Ar      Ar      0.000000 39.950000
    5742 A       5742       Ar      Ar      Ar      0.000000 39.950000
    5743 A       5743       Ar      Ar      Ar      0.000000 39.950000
    5744 A       5744       Ar      Ar      Ar      0.000000 39.950000
    5745 A       5745       Ar      Ar      Ar      0.000000 39.950000
    5746 A       5746       Ar      Ar      Ar      0.000000 39.950000
    5747 A       5747       Ar      Ar      Ar      0.000000 39.950000
    5748 A       5748       Ar      Ar      Ar      0.000000 39.950000
    5749 A       5749       Ar      Ar      Ar      0.000000 39.950000
    5750 A       5750       Ar      Ar      Ar      0.000000 39.950000
    5751 A       5751       Ar      Ar      Ar      0.000000 39.950000
    5752 A       5752       Ar      Ar      Ar      0.000000 39.950000
    5753 A       5753       Ar      Ar      Ar      0.000000 39.950000
    5754 A       5754       Ar      Ar      Ar      0.000000 39.950000
    5755 A       5755       Ar      Ar      Ar      0.000000 39.950000
    5756 A       5756       Ar      Ar      Ar      0.000000 39.950000
    5757 A       5757       Ar      Ar      Ar      0.000000 39.950000
    5758 A       5758       Ar      Ar      Ar      0.000000 39.950000
    5759 A       5759       Ar      Ar      Ar      0.000000 39.950000
    5760 A       5760       Ar      Ar      Ar      0.000000 39.950000
    5761 A       5761       Ar      Ar      Ar      0.000000 39.950000
    5762 A       5762       Ar      Ar      Ar      0.000000 39.950000
    5763 A       5763       Ar      Ar      Ar      0.000000 39.950000
    5764 A       5764       Ar      Ar      Ar      0.000000 39.950000
    5765 A       5765       Ar      Ar      Ar      0.000000 39.950000
    5766 A       5766       Ar      Ar      Ar      0.000000 39.950000
    5767 A       5767       Ar      Ar      Ar      0.000000 39.950000
    5768 A       5768       Ar      Ar      Ar      0.000000 39.950000
    5769 A       5769       Ar      Ar      Ar      0.000000 39.950000
    5770 A       5770       Ar      Ar      Ar      0.000000 39.950000
    5771 A       5771       Ar      Ar      Ar      0.000000 39.950000
    5772 A       5772       Ar      Ar      Ar      0.000000 39.950000
    5773 A       5773       Ar      Ar      Ar      0.000000 39.950000
    5774 A       5774       Ar      Ar      Ar      0.000000 39.950000
    5775 A       5775       Ar      Ar      Ar      0.000000 39.950000
    5776 A       5776       Ar      Ar      Ar      0.000000 39.950000
    5777 A       5777       Ar      Ar      Ar      0.000000 39.950000
    5778 A       5778       Ar      Ar      Ar      0.000000 39.950000
    5779 A       5779       Ar      Ar      Ar      0.000000 39.950000
    5780 A       5780       Ar      Ar      Ar      0.000000 39.950000
    5781 A       5781       Ar      Ar      Ar      0.000000 39.950000
    5782 A       5782       Ar      Ar      Ar      0.000000 39.950000
    5783 A       5783       Ar      Ar      Ar      0.000000 39.950000
    5784 A       5784       Ar      Ar      Ar      0.000000 39.950000
    5785 A       5785       Ar      Ar      Ar      0.000000 39.950000
    5786 A       5786       Ar      Ar      Ar      0.000000 39.950000
    5787 A       5787       Ar      Ar      Ar      0.000000 39.950000
    5788 A       5788       Ar      Ar      Ar      0.000000 39.950000
    5789 A       5789       Ar      Ar      Ar      0.000000 39.950000
    5790 A       5790       Ar      Ar      Ar      0.000000 39.950000
    5791 A       5791       Ar      Ar      Ar      0.000000 39.950000
    5792 A       5792       Ar      Ar      Ar      0.000000 39.950000
    5793 A       5793       Ar      Ar      Ar      0.000000 39.950000
    5794 A       5794       Ar      Ar      Ar      0.000000 39.950000
    5795 A       5795       Ar      Ar      Ar      0.000000 39.950000
    5796 A       5796       Ar      Ar      Ar      0.000000 39.950000
    5797 A       5797       Ar      Ar      Ar      0.000000 39.950000
    5798 A       5798       Ar      Ar      Ar      0.000000 39.950000
    5799 A       5799       Ar      Ar      Ar      0.000000 39.950000
    5800 A       5800       Ar      Ar      Ar      0.000000 39.950000
    5801 A       5801       Ar      Ar      Ar      0.000000 39.950000
    5802 A       5802       Ar      Ar      Ar      0.000000 39.950000
    5803 A       5803       Ar      Ar      Ar      0.000000 39.950000
    5804 A       5804       Ar      Ar      Ar      0.000000 39.950000
    5805 A       5805       Ar      Ar      Ar      0.000000 39.950000
    5806 A       5806       Ar      Ar      Ar      0.000000 39.950000
    5807 A       5807       Ar      Ar      Ar      0.000000 39.950000
    5808 A       5808       Ar      Ar      Ar      0.000000 39.950000
    5809 A       5809       Ar      Ar      Ar      0.000000 39.950000
    5810 A       5810       Ar      Ar      Ar      0.000000 39.950000
    5811 A       5811       Ar      Ar      Ar      0.000000 39.950000
    5812 A       5812       Ar      Ar      Ar      0.000000 39.950000
    5813 A       5813       Ar      Ar      Ar      0.000000 39.950000
    5814 A       5814       Ar      Ar      Ar      0.000000 39.950000
    5815 A       5815       Ar      Ar      Ar      0.000000 39.950000
    5816 A       5816       Ar      Ar      Ar      0.000000 39.950000
    5817 A       5817       Ar      Ar      Ar      0.000000 39.950000
    5818 A       5818       Ar      Ar      Ar      0.000000 39.950000
    5819 A       5819       Ar      Ar      Ar      0.000000 39.950000
    5820 A       5820       Ar      Ar      Ar      0.000000 39.950000
    5821 A       5821       Ar      Ar      Ar      0.000000 39.950000
    5822 A       5822       Ar      Ar      Ar      0.000000 39.950000
    5823 A       5823       Ar      Ar      Ar      0.000000 39.950000
    5824 A       5824       Ar      Ar      Ar      0.000000 39.950000
    5825 A       5825       Ar      Ar      Ar      0.000000 39.950000
    5826 A       5826       Ar      Ar      Ar      0.000000 39.950000
    5827 A       5827       Ar      Ar      Ar      0.000000 39.950000
    5828 A       5828       Ar      Ar      Ar      0.000000 39.950000
    5829 A       5829       Ar      Ar      Ar      0.000000 39.950000
    5830 A       5830       Ar      Ar      Ar      0.000000 39.950000
    5831 A       5831       Ar      Ar      Ar      0.000000 39.950000
    5832 A       5832       Ar      Ar      Ar      0.000000 39.950000
    5833 A       5833       Ar      Ar      Ar      0.000000 39.950000
    5834 A       5834       Ar      Ar      Ar      0.000000 39.950000
    5835 A       5835       Ar      Ar      Ar      0.000000 39.950000
    5836 A       5836       Ar      Ar      Ar      0.000000 39.950000
    5837 A       5837       Ar      Ar      Ar      0.000000 39.950000
    5838 A       5838       Ar      Ar      Ar      0.000000 39.950000
    5839 A       5839       Ar      Ar      Ar      0.000000 39.950000
    5840 A       5840       Ar      Ar      Ar      0.000000 39.950000
    5841 A       5841       Ar      Ar      Ar      0.000000 39.950000
    5842 A       5842       Ar      Ar      Ar      0.000000 39.950000
    5843 A       5843       Ar      Ar      Ar      0.000000 39.950000
    5844 A       5844       Ar      Ar      Ar      0.000000 39.950000
    5845 A       5845       Ar      Ar      Ar      0.000000 39.950000
    5846 A       5846       Ar      Ar      Ar      0.000000 39.950000
    5847 A       5847       Ar      Ar      Ar      0.000000 39.950000
    5848 A       5848       Ar      Ar      Ar      0.000000 39.950000
    5849 A       5849       Ar      Ar      Ar      0.000000 39.950000
    5850 A       5850       Ar      Ar      Ar      0.000000 39.950000
    5851 A       5851       Ar      Ar      Ar      0.000000 39.950000
    5852 A       5852       Ar      Ar      Ar      0.000000 39.950000
    5853 A       5853       Ar      Ar      Ar      0.000000 39.950000
    5854 A       5854       Ar      Ar      Ar      0.000000 39.950000
    5855 A       5855       Ar      Ar      Ar      0.000000 39.950000
    5856 A       5856       Ar      Ar      Ar      0.000000 39.950000
    5857 A       5857       Ar      Ar      Ar      0.000000 39.950000
    5858 A       5858       Ar      Ar      Ar      0.000000 39.950000
    5859 A       5859       Ar      Ar      Ar      0.000000 39.950000
    5860 A       5860       Ar      Ar      Ar      0.000000 39.950000
    5861 A       5861       Ar      Ar      Ar      0.000000 39.950000
    5862 A       5862       Ar      Ar      Ar      0.000000 39.950000
    5863 A       5863       Ar      Ar      Ar      0.000000 39.950000
    5864 A       5864       Ar      Ar      Ar      0.000000 39.950000
    5865 A       5865       Ar      Ar      Ar      0.000000 39.950000
    5866 A       5866       Ar      Ar      Ar      0.000000 39.950000
    5867 A       5867       Ar      Ar      Ar      0.000000 39.950000
    5868 A       5868       Ar      Ar      Ar      0.000000 39.950000
    5869 A       5869       Ar      Ar      Ar      0.000000 39.950000
    5870 A       5870       Ar      Ar      Ar      0.000000 39.950000
    5871 A       5871       Ar      Ar      Ar      0.000000 39.950000
    5872 A       5872       Ar      Ar      Ar      0.000000 39.950000
    5873 A       5873       Ar      Ar      Ar      0.000000 39.950000
    5874 A       5874       Ar      Ar      Ar      0.000000 39.950000
    5875 A       5875       Ar      Ar      Ar      0.000000 39.950000
    5876 A       5876       Ar      Ar      Ar      0.000000 39.950000
    5877 A       5877       Ar      Ar      Ar      0.000000 39.950000
    5878 A       5878       Ar      Ar      Ar      0.000000 39.950000
    5879 A       5879       Ar      Ar      Ar      0.000000 39.950000
    5880 A       5880       Ar      Ar      Ar      0.000000 39.950000
    5881 A       5881       Ar      Ar      Ar      0.000000 39.950000
    5882 A       5882       Ar      Ar      Ar      0.000000 39.950000
    5883 A       5883       Ar      Ar      Ar      0.000000 39.950000
    5884 A       5884       Ar      Ar      Ar      0.000000 39.950000
    5885 A       5885       Ar      Ar      Ar      0.000000 39.950000
    5886 A       5886       Ar      Ar      Ar      0.000000 39.950000
    5887 A       5887       Ar      Ar      Ar      0.000000 39.950000
    5888 A       5888       Ar      Ar      Ar      0.000000 39.950000
    5889 A       5889       Ar      Ar      Ar      0.000000 39.950000
    5890 A       5890       Ar      Ar      Ar      0.000000 39.950000
    5891 A       5891       Ar      Ar      Ar      0.000000 39.950000
    5892 A       5892       Ar      Ar      Ar      0.000000 39.950000
    5893 A       5893       Ar      Ar      Ar      0.000000 39.950000
    5894 A       5894       Ar      Ar      Ar      0.000000 39.950000
    5895 A       5895       Ar      Ar      Ar      0.000000 39.950000
    5896 A       5896       Ar      Ar      Ar      0.000000 39.950000
    5897 A       5897       Ar      Ar      Ar      0.000000 39.950000
    5898 A       5898       Ar      Ar      Ar      0.000000 39.950000
    5899 A       5899       Ar      Ar      Ar      0.000000 39.950000
    5900 A       5900       Ar      Ar      Ar      0.000000 39.950000
    5901 A       5901       Ar      Ar      Ar      0.000000 39.950000
    5902 A       5902       Ar      Ar      Ar      0.000000 39.950000
    5903 A       5903       Ar      Ar      Ar      0.000000 39.950000
    5904 A       5904       Ar      Ar      Ar      0.000000 39.950000
    5905 A       5905       Ar      Ar      Ar      0.000000 39.950000
    5906 A       5906       Ar      Ar      Ar      0.000000 39.950000
    5907 A       5907       Ar      Ar      Ar      0.000000 39.950000
    5908 A       5908       Ar      Ar      Ar      0.000000 39.950000
    5909 A       5909       Ar      Ar      Ar      0.000000 39.950000
    5910 A       5910       Ar      Ar      Ar      0.000000 39.950000
    5911 A       5911       Ar      Ar      Ar      0.000000 39.950000
    5912 A       5912       Ar      Ar      Ar      0.000000 39.950000
    5913 A       5913       Ar      Ar      Ar      0.000000 39.950000
    5914 A       5914       Ar      Ar      Ar      0.000000 39.950000
    5915 A       5915       Ar      Ar      Ar      0.000000 39.950000
    5916 A       5916       Ar      Ar      Ar      0.000000 39.950000
    5917 A       5917       Ar      Ar      Ar      0.000000 39.950000
    5918 A       5918       Ar      Ar      Ar      0.000000 39.950000
    5919 A       5919       Ar      Ar      Ar      0.000000 39.950000
    5920 A       5920       Ar      Ar      Ar      0.000000 39.950000
    5921 A       5921       Ar      Ar      Ar      0.000000 39.950000
    5922 A       5922       Ar      Ar      Ar      0.000000 39.950000
    5923 A       5923       Ar      Ar      Ar      0.000000 39.950000
    5924 A       5924       Ar      Ar      Ar      0.000000 39.950000
    5925 A       5925       Ar      Ar      Ar      0.000000 39.950000
    5926 A       5926       Ar      Ar      Ar      0.000000 39.950000
    5927 A       5927       Ar      Ar      Ar      0.000000 39.950000
    5928 A       5928       Ar      Ar      Ar      0.000000 39.950000
    5929 A       5929       Ar      Ar      Ar      0.000000 39.950000
    5930 A       5930       Ar      Ar      Ar      0.000000 39.950000
    5931 A       5931       Ar      Ar      Ar      0.000000 39.950000
    5932 A       5932       Ar      Ar      Ar      0.000000 39.950000
    5933 A       5933       Ar      Ar      Ar      0.000000 39.950000
    5934 A       5934       Ar      Ar      Ar      0.000000 39.950000
    5935 A       5935       Ar      Ar      Ar      0.000000 39.950000
    5936 A       5936       Ar      Ar      Ar      0.000000 39.950000
    5937 A       5937       Ar      Ar      Ar      0.000000 39.950000
    5938 A       5938       Ar      Ar      Ar      0.000000 39.950000
    5939 A       5939       Ar      Ar      Ar      0.000000 39.950000
    5940 A       5940       Ar      Ar      Ar      0.000000 39.950000
    5941 A       5941       Ar      Ar      Ar      0.000000 39.950000
    5942 A       5942       Ar      Ar      Ar      0.000000 39.950000
    5943 A       5943       Ar      Ar      Ar      0.000000 39.950000
    5944 A       5944       Ar      Ar      Ar      0.000000 39.950000
    5945 A       5945       Ar      Ar      Ar      0.000000 39.950000
    5946 A       5946       Ar      Ar      Ar      0.000000 39.950000
    5947 A       5947       Ar      Ar      Ar      0.000000 39.950000
    5948 A       5948       Ar      Ar      Ar      0.000000 39.950000
    5949 A       5949       Ar      Ar      Ar      0.000000 39.950000
    5950 A       5950       Ar      Ar      Ar      0.000000 39.950000
    5951 A       5951       Ar      Ar      Ar      0.000000 39.950000
    5952 A       5952       Ar      Ar      Ar      0.000000 39.950000
    5953 A       5953       Ar      Ar      Ar      0.000000 39.950000
    5954 A       5954       Ar      Ar      Ar      0.000000 39.950000
    5955 A       5955       Ar      Ar      Ar      0.000000 39.950000
    5956 A       5956       Ar      Ar      Ar      0.000000 39.950000
    5957 A       5957       Ar      Ar      Ar      0.000000 39.950000
    5958 A       5958       Ar      Ar      Ar      0.000000 39.950000
    5959 A       5959       Ar      Ar      Ar      0.000000 39.950000
    5960 A       5960       Ar      Ar      Ar      0.000000 39.950000
    5961 A       5961       Ar      Ar      Ar      0.000000 39.950000
    5962 A       5962       Ar      Ar      Ar      0.000000 39.950000
    5963 A       5963       Ar      Ar      Ar      0.000000 39.950000
    5964 A       5964       Ar      Ar      Ar      0.000000 39.950000
    5965 A       5965       Ar      Ar      Ar      0.000000 39.950000
    5966 A       5966       Ar      Ar      Ar      0.000000 39.950000
    5967 A       5967       Ar      Ar      Ar      0.000000 39.950000
    5968 A       5968       Ar      Ar      Ar      0.000000 39.950000
    5969 A       5969       Ar      Ar      Ar      0.000000 39.950000
    5970 A       5970       Ar      Ar      Ar      0.000000 39.950000
    5971 A       5971       Ar      Ar      Ar      0.000000 39.950000
    5972 A       5972       Ar      Ar      Ar      0.000000 39.950000
    5973 A       5973       Ar      Ar      Ar      0.000000 39.950000
    5974 A       5974       Ar      Ar      Ar      0.000000 39.950000
    5975 A       5975       Ar      Ar      Ar      0.000000 39.950000
    5976 A       5976       Ar      Ar      Ar      0.000000 39.950000
    5977 A       5977       Ar      Ar      Ar      0.000000 39.950000
    5978 A       5978       Ar      Ar      Ar      0.000000 39.950000
    5979 A       5979       Ar      Ar      Ar      0.000000 39.950000
    5980 A       5980       Ar      Ar      Ar      0.000000 39.950000
    5981 A       5981       Ar      Ar      Ar      0.000000 39.950000
    5982 A       5982       Ar      Ar      Ar      0.000000 39.950000
    5983 A       5983       Ar      Ar      Ar      0.000000 39.950000
    5984 A       5984       Ar      Ar      Ar      0.000000 39.950000
    5985 A       5985       Ar      Ar      Ar      0.000000 39.950000
    5986 A       5986       Ar      Ar      Ar      0.000000 39.950000
    5987 A       5987       Ar      Ar      Ar      0.000000 39.950000
    5988 A       5988       Ar      Ar      Ar      0.000000 39.950000
    5989 A       5989       Ar      Ar      Ar      0.000000 39.950000
    5990 A       5990       Ar      Ar      Ar      0.000000 39.950000
    5991 A       5991       Ar      Ar      Ar      0.000000 39.950000
    5992 A       5992       Ar      Ar      Ar      0.000000 39.950000
    5993 A       5993       Ar      Ar      Ar      0.000000 39.950000
    5994 A       5994       Ar      Ar      Ar      0.000000 39.950000
    5995 A       5995       Ar      Ar      Ar      0.000000 39.950000
    5996 A       5996       Ar      Ar      Ar      0.000000 39.950000
    5997 A       5997       Ar      Ar      Ar      0.000000 39.950000
    5998 A       5998       Ar      Ar      Ar      0.000000 39.950000
    5999 A       5999       Ar      Ar      Ar      0.000000 39.950000
    6000 A       6000       Ar      Ar      Ar      0.000000 39.950000
    6001 A       6001       Ar      Ar      Ar      0.000000 39.950000
    6002 A       6002       Ar      Ar      Ar      0.000000 39.950000
    6003 A       6003       Ar      Ar      Ar      0.000000 39.950000
    6004 A       6004       Ar      Ar      Ar      0.000000 39.950000
    6005 A       6005       Ar      Ar      Ar      0.000000 39.950000
    6006 A       6006       Ar      Ar      Ar      0.000000 39.950000
    6007 A       6007       Ar      Ar      Ar      0.000000 39.950000
    6008 A       6008       Ar      Ar      Ar      0.000000 39.950000
    6009 A       6009       Ar      Ar      Ar      0.000000 39.950000
    6010 A       6010       Ar      Ar      Ar      0.000000 39.950000
    6011 A       6011       Ar      Ar      Ar      0.000000 39.950000
    6012 A       6012       Ar      Ar      Ar      0.000000 39.950000
    6013 A       6013       Ar      Ar      Ar      0.000000 39.950000
    6014 A       6014       Ar      Ar      Ar      0.000000 39.950000
    6015 A       6015       Ar      Ar      Ar      0.000000 39.950000
    6016 A       6016       Ar      Ar      Ar      0.000000 39.950000
    6017 A       6017       Ar      Ar      Ar      0.000000 39.950000
    6018 A       6018       Ar      Ar      Ar      0.000000 39.950000
    6019 A       6019       Ar      Ar      Ar      0.000000 39.950000
    6020 A       6020       Ar      Ar      Ar      0.000000 39.950000
    6021 A       6021       Ar      Ar      Ar      0.000000 39.950000
    6022 A       6022       Ar      Ar      Ar      0.000000 39.950000
    6023 A       6023       Ar      Ar      Ar      0.000000 39.950000
    6024 A       6024       Ar      Ar      Ar      0.000000 39.950000
    6025 A       6025       Ar      Ar      Ar      0.000000 39.950000
    6026 A       6026       Ar      Ar      Ar      0.000000 39.950000
    6027 A       6027       Ar      Ar      Ar      0.000000 39.950000
    6028 A       6028       Ar      Ar      Ar      0.000000 39.950000
    6029 A       6029       Ar      Ar      Ar      0.000000 39.950000
    6030 A       6030       Ar      Ar      Ar      0.000000 39.950000
    6031 A       6031       Ar      Ar      Ar      0.000000 39.950000
    6032 A       6032       Ar      Ar      Ar      0.000000 39.950000
    6033 A       6033       Ar      Ar      Ar      0.000000 39.950000
    6034 A       6034       Ar      Ar      Ar      0.000000 39.950000
    6035 A       6035       Ar      Ar      Ar      0.000000 39.950000
    6036 A       6036       Ar      Ar      Ar      0.000000 39.950000
    6037 A       6037       Ar      Ar      Ar      0.000000 39.950000
    6038 A       6038       Ar      Ar      Ar      0.000000 39.950000
    6039 A       6039       Ar      Ar      Ar      0.000000 39.950000
    6040 A       6040       Ar      Ar      Ar      0.000000 39.950000
    6041 A       6041       Ar      Ar      Ar      0.000000 39.950000
    6042 A       6042       Ar      Ar      Ar      0.000000 39.950000
    6043 A       6043       Ar      Ar      Ar      0.000000 39.950000
    6044 A       6044       Ar      Ar      Ar      0.000000 39.950000
    6045 A       6045       Ar      Ar      Ar      0.000000 39.950000
    6046 A       6046       Ar      Ar      Ar      0.000000 39.950000
    6047 A       6047       Ar      Ar      Ar      0.000000 39.950000
    6048 A       6048       Ar      Ar      Ar      0.000000 39.950000
    6049 A       6049       Ar      Ar      Ar      0.000000 39.950000
    6050 A       6050       Ar      Ar      Ar      0.000000 39.950000
    6051 A       6051       Ar      Ar      Ar      0.000000 39.950000
    6052 A       6052       Ar      Ar      Ar      0.000000 39.950000
    6053 A       6053       Ar      Ar      Ar      0.000000 39.950000
    6054 A       6054       Ar      Ar      Ar      0.000000 39.950000
    6055 A       6055       Ar      Ar      Ar      0.000000 39.950000
    6056 A       6056       Ar      Ar      Ar      0.000000 39.950000
    6057 A       6057       Ar      Ar      Ar      0.000000 39.950000
    6058 A       6058       Ar      Ar      Ar      0.000000 39.950000
    6059 A       6059       Ar      Ar      Ar      0.000000 39.950000
    6060 A       6060       Ar      Ar      Ar      0.000000 39.950000
    6061 A       6061       Ar      Ar      Ar      0.000000 39.950000
    6062 A       6062       Ar      Ar      Ar      0.000000 39.950000
    6063 A       6063       Ar      Ar      Ar      0.000000 39.950000
    6064 A       6064       Ar      Ar      Ar      0.000000 39.950000
    6065 A       6065       Ar      Ar      Ar      0.000000 39.950000
    6066 A       6066       Ar      Ar      Ar      0.000000 39.950000
    6067 A       6067       Ar      Ar      Ar      0.000000 39.950000
    6068 A       6068       Ar      Ar      Ar      0.000000 39.950000
    6069 A       6069       Ar      Ar      Ar      0.000000 39.950000
    6070 A       6070       Ar      Ar      Ar      0.000000 39.950000
    6071 A       6071       Ar      Ar      Ar      0.000000 39.950000
    6072 A       6072       Ar      Ar      Ar      0.000000 39.950000
    6073 A       6073       Ar      Ar      Ar      0.000000 39.950000
    6074 A       6074       Ar      Ar      Ar      0.000000 39.950000
    6075 A       6075       Ar      Ar      Ar      0.000000 39.950000
    6076 A       6076       Ar      Ar      Ar      0.000000 39.950000
    6077 A       6077       Ar      Ar      Ar      0.000000 39.950000
    6078 A       6078       Ar      Ar      Ar      0.000000 39.950000
    6079 A       6079       Ar      Ar      Ar      0.000000 39.950000
    6080 A       6080       Ar      Ar      Ar      0.000000 39.950000
    6081 A       6081       Ar      Ar      Ar      0.000000 39.950000
    6082 A       6082       Ar      Ar      Ar      0.000000 39.950000
    6083 A       6083       Ar      Ar      Ar      0.000000 39.950000
    6084 A       6084       Ar      Ar      Ar      0.000000 39.950000
    6085 A       6085       Ar      Ar      Ar      0.000000 39.950000
    6086 A       6086       Ar      Ar      Ar      0.000000 39.950000
    6087 A       6087       Ar      Ar      Ar      0.000000 39.950000
    6088 A       6088       Ar      Ar      Ar      0.000000 39.950000
    6089 A       6089       Ar      Ar      Ar      0.000000 39.950000
    6090 A       6090       Ar      Ar      Ar      0.000000 39.950000
    6091 A       6091       Ar      Ar      Ar      0.000000 39.950000
    6092 A       6092       Ar      Ar      Ar      0.000000 39.950000
    6093 A       6093       Ar      Ar      Ar      0.000000 39.950000
    6094 A       6094       Ar      Ar      Ar      0.000000 39.950000
    6095 A       6095       Ar      Ar      Ar      0.000000 39.950000
    6096 A       6096       Ar      Ar      Ar      0.000000 39.950000
    6097 A       6097       Ar      Ar      Ar      0.000000 39.950000
    6098 A       6098       Ar      Ar      Ar      0.000000 39.950000
    6099 A       6099       Ar      Ar      Ar      0.000000 39.950000
    6100 A       6100       Ar      Ar      Ar      0.000000 39.950000
    6101 A       6101       Ar      Ar      Ar      0.000000 39.950000
    6102 A       6102       Ar      Ar      Ar      0.000000 39.950000
    6103 A       6103       Ar      Ar      Ar      0.000000 39.950000
    6104 A       6104       Ar      Ar      Ar      0.000000 39.950000
    6105 A       6105       Ar      Ar      Ar      0.000000 39.950000
    6106 A       6106       Ar      Ar      Ar      0.000000 39.950000
    6107 A       6107       Ar      Ar      Ar      0.000000 39.950000
    6108 A       6108       Ar      Ar      Ar      0.000000 39.950000
    6109 A       6109       Ar      Ar      Ar      0.000000 39.950000
    6110 A       6110       Ar      Ar      Ar      0.000000 39.950000
    6111 A       6111       Ar      Ar      Ar      0.000000 39.950000
    6112 A       6112       Ar      Ar      Ar      0.000000 39.950000
    6113 A       6113       Ar      Ar      Ar      0.000000 39.950000
    6114 A       6114       Ar      Ar      Ar      0.000000 39.950000
    6115 A       6115       Ar      Ar      Ar      0.000000 39.950000
    6116 A       6116       Ar      Ar      Ar      0.000000 39.950000
    6117 A       6117       Ar      Ar      Ar      0.000000 39.950000
    6118 A       6118       Ar      Ar      Ar      0.000000 39.950000
    6119 A       6119       Ar      Ar      Ar      0.000000 39.950000
    6120 A       6120       Ar      Ar      Ar      0.000000 39.950000
    6121 A       6121       Ar      Ar      Ar      0.000000 39.950000
    6122 A       6122       Ar      Ar      Ar      0.000000 39.950000
    6123 A       6123       Ar      Ar      Ar      0.000000 39.950000
    6124 A       6124       Ar      Ar      Ar      0.000000 39.950000
    6125 A       6125       Ar      Ar      Ar      0.000000 39.950000
    6126 A       6126       Ar      Ar      Ar      0.000000 39.950000
    6127 A       6127       Ar      Ar      Ar      0.000000 39.950000
    6128 A       6128       Ar      Ar      Ar      0.000000 39.950000
    6129 A       6129       Ar      Ar      Ar      0.000000 39.950000
    6130 A       6130       Ar      Ar      Ar      0.000000 39.950000
    6131 A       6131       Ar      Ar      Ar      0.000000 39.950000
    6132 A       6132       Ar      Ar      Ar      0.000000 39.950000
    6133 A       6133       Ar      Ar      Ar      0.000000 39.950000
    6134 A       6134       Ar      Ar      Ar      0.000000 39.950000
    6135 A       6135       Ar      Ar      Ar      0.000000 39.950000
    6136 A       6136       Ar      Ar      Ar      0.000000 39.950000
    6137 A       6137       Ar      Ar      Ar      0.000000 39.950000
    6138 A       6138       Ar      Ar      Ar      0.000000 39.950000
    6139 A       6139       Ar      Ar      Ar      0.000000 39.950000
    6140 A       6140       Ar      Ar      Ar      0.000000 39.950000
    6141 A       6141       Ar      Ar      Ar      0.000000 39.950000
    6142 A       6142       Ar      Ar      Ar      0.000000 39.950000
    6143 A       6143       Ar      Ar      Ar      0.000000 39.950000
    6144 A       6144       Ar      Ar      Ar      0.000000 39.950000
    6145 A       6145       Ar      Ar      Ar      0.000000 39.950000
    6146 A       6146       Ar      Ar      Ar      0.000000 39.950000
    6147 A       6147       Ar      Ar      Ar      0.000000 39.950000
    6148 A       6148       Ar      Ar      Ar      0.000000 39.950000
    6149 A       6149       Ar      Ar      Ar      0.000000 39.950000
    6150 A       6150       Ar      Ar      Ar      0.000000 39.950000
    6151 A       6151       Ar      Ar      Ar      0.000000 39.950000
    6152 A       6152       Ar      Ar      Ar      0.000000 39.950000
    6153 A       6153       Ar      Ar      Ar      0.000000 39.950000
    6154 A       6154       Ar      Ar      Ar      0.000000 39.950000
    6155 A       6155       Ar      Ar      Ar      0.000000 39.950000
    6156 A       6156       Ar      Ar      Ar      0.000000 39.950000
    6157 A       6157       Ar      Ar      Ar      0.000000 39.950000
    6158 A       6158       Ar      Ar      Ar      0.000000 39.950000
    6159 A       6159       Ar      Ar      Ar      0.000000 39.950000
    6160 A       6160       Ar      Ar      Ar      0.000000 39.950000
    6161 A       6161       Ar      Ar      Ar      0.000000 39.950000
    6162 A       6162       Ar      Ar      Ar      0.000000 39.950000
    6163 A       6163       Ar      Ar      Ar      0.000000 39.950000
    6164 A       6164       Ar      Ar      Ar      0.000000 39.950000
    6165 A       6165       Ar      Ar      Ar      0.000000 39.950000
    6166 A       6166       Ar      Ar      Ar      0.000000 39.950000
    6167 A       6167       Ar      Ar      Ar      0.000000 39.950000
    6168 A       6168       Ar      Ar      Ar      0.000000 39.950000
    6169 A       6169       Ar      Ar      Ar      0.000000 39.950000
    6170 A       6170       Ar      Ar      Ar      0.000000 39.950000
    6171 A       6171       Ar      Ar      Ar      0.000000 39.950000
    6172 A       6172       Ar      Ar      Ar      0.000000 39.950000
    6173 A       6173       Ar      Ar      Ar      0.000000 39.950000
    6174 A       6174       Ar      Ar      Ar      0.000000 39.950000
    6175 A       6175       Ar      Ar      Ar      0.000000 39.950000
    6176 A       6176       Ar      Ar      Ar      0.000000 39.950000
    6177 A       6177       Ar      Ar      Ar      0.000000 39.950000
    6178 A       6178       Ar      Ar      Ar      0.000000 39.950000
    6179 A       6179       Ar      Ar      Ar      0.000000 39.950000
    6180 A       6180       Ar      Ar      Ar      0.000000 39.950000
    6181 A       6181       Ar      Ar      Ar      0.000000 39.950000
    6182 A       6182       Ar      Ar      Ar      0.000000 39.950000
    6183 A       6183       Ar      Ar      Ar      0.000000 39.950000
    6184 A       6184       Ar      Ar      Ar      0.000000 39.950000
    6185 A       6185       Ar      Ar      Ar      0.000000 39.950000
    6186 A       6186       Ar      Ar      Ar      0.000000 39.950000
    6187 A       6187       Ar      Ar      Ar      0.000000 39.950000
    6188 A       6188       Ar      Ar      Ar      0.000000 39.950000
    6189 A       6189       Ar      Ar      Ar      0.000000 39.950000
    6190 A       6190       Ar      Ar      Ar      0.000000 39.950000
    6191 A       6191       Ar      Ar      Ar      0.000000 39.950000
    6192 A       6192       Ar      Ar      Ar      0.000000 39.950000
    6193 A       6193       Ar      Ar      Ar      0.000000 39.950000
    6194 A       6194       Ar      Ar      Ar      0.000000 39.950000
    6195 A       6195       Ar      Ar      Ar      0.000000 39.950000
    6196 A       6196       Ar      Ar      Ar      0.000000 39.950000
    6197 A       6197       Ar      Ar      Ar      0.000000 39.950000
    6198 A       6198       Ar      Ar      Ar      0.000000 39.950000
    6199 A       6199       Ar      Ar      Ar      0.000000 39.950000
    6200 A       6200       Ar      Ar      Ar      0.000000 39.950000
    6201 A       6201       Ar      Ar      Ar      0.000000 39.950000
    6202 A       6202       Ar      Ar      Ar      0.000000 39.950000
    6203 A       6203       Ar      Ar      Ar      0.000000 39.950000
    6204 A       6204       Ar      Ar      Ar      0.000000 39.950000
    6205 A       6205       Ar      Ar      Ar      0.000000 39.950000
    6206 A       6206       Ar      Ar      Ar      0.000000 39.950000
    6207 A       6207       Ar      Ar      Ar      0.000000 39.950000
    6208 A       6208       Ar      Ar      Ar      0.000000 39.950000
    6209 A       6209       Ar      Ar      Ar      0.000000 39.950000
    6210 A       6210       Ar      Ar      Ar      0.000000 39.950000
    6211 A       6211       Ar      Ar      Ar      0.000000 39.950000
    6212 A       6212       Ar      Ar      Ar      0.000000 39.950000
    6213 A       6213       Ar      Ar      Ar      0.000000 39.950000
    6214 A       6214       Ar      Ar      Ar      0.000000 39.950000
    6215 A       6215       Ar      Ar      Ar      0.000000 39.950000
    6216 A       6216       Ar      Ar      Ar      0.000000 39.950000
    6217 A       6217       Ar      Ar      Ar      0.000000 39.950000
    6218 A       6218       Ar      Ar      Ar      0.000000 39.950000
    6219 A       6219       Ar      Ar      Ar      0.000000 39.950000
    6220 A       6220       Ar      Ar      Ar      0.000000 39.950000
    6221 A       6221       Ar      Ar      Ar      0.000000 39.950000
    6222 A       6222       Ar      Ar      Ar      0.000000 39.950000
    6223 A       6223       Ar      Ar      Ar      0.000000 39.950000
    6224 A       6224       Ar      Ar      Ar      0.000000 39.950000
    6225 A       6225       Ar      Ar      Ar      0.000000 39.950000
    6226 A       6226       Ar      Ar      Ar      0.000000 39.950000
    6227 A       6227       Ar      Ar      Ar      0.000000 39.950000
    6228 A       6228       Ar      Ar      Ar      0.000000 39.950000
    6229 A       6229       Ar      Ar      Ar      0.000000 39.950000
    6230 A       6230       Ar      Ar      Ar      0.000000 39.950000
    6231 A       6231       Ar      Ar      Ar      0.000000 39.950000
    6232 A       6232       Ar      Ar      Ar      0.000000 39.950000
    6233 A       6233       Ar      Ar      Ar      0.000000 39.950000
    6234 A       6234       Ar      Ar      Ar      0.000000 39.950000
    6235 A       6235       Ar      Ar      Ar      0.000000 39.950000
    6236 A       6236       Ar      Ar      Ar      0.000000 39.950000
    6237 A       6237       Ar      Ar      Ar      0.000000 39.950000
    6238 A       6238       Ar      Ar      Ar      0.000000 39.950000
    6239 A       6239       Ar      Ar      Ar      0.000000 39.950000
    6240 A       6240       Ar      Ar      Ar      0.000000 39.950000
    6241 A       6241       Ar      Ar      Ar      0.000000 39.950000
    6242 A       6242       Ar      Ar      Ar      0.000000 39.950000
    6243 A       6243       Ar      Ar      Ar      0.000000 39.950000
    6244 A       6244       Ar      Ar      Ar      0.000000 39.950000
    6245 A       6245       Ar      Ar      Ar      0.000000 39.950000
    6246 A       6246       Ar      Ar      Ar      0.000000 39.950000
    6247 A       6247       Ar      Ar      Ar      0.000000 39.950000
    6248 A       6248       Ar      Ar      Ar      0.000000 39.950000
    6249 A       6249       Ar      Ar      Ar      0.000000 39.950000
    6250 A       6250       Ar      Ar      Ar      0.000000 39.950000
    6251 A       6251       Ar      Ar      Ar      0.000000 39.950000
    6252 A       6252       Ar      Ar      Ar      0.000000 39.950000
    6253 A       6253       Ar      Ar      Ar      0.000000 39.950000
    6254 A       6254       Ar      Ar      Ar      0.000000 39.950000
    6255 A       6255       Ar      Ar      Ar      0.000000 39.950000
    6256 A       6256       Ar      Ar      Ar      0.000000 39.950000
    6257 A       6257       Ar      Ar      Ar      0.000000 39.950000
    6258 A       6258       Ar      Ar      Ar      0.000000 39.950000
    6259 A       6259       Ar      Ar      Ar      0.000000 39.950000
    6260 A       6260       Ar      Ar      Ar      0.000000 39.950000
    6261 A       6261       Ar      Ar      Ar      0.000000 39.950000
    6262 A       6262       Ar      Ar      Ar      0.000000 39.950000
    6263 A       6263       Ar      Ar      Ar      0.000000 39.950000
    6264 A       6264       Ar      Ar      Ar      0.000000 39.950000
    6265 A       6265       Ar      Ar      Ar      0.000000 39.950000
    6266 A       6266       Ar      Ar      Ar      0.000000 39.950000
    6267 A       6267       Ar      Ar      Ar      0.000000 39.950000
    6268 A       6268       Ar      Ar      Ar      0.000000 39.950000
    6269 A       6269       Ar      Ar      Ar      0.000000 39.950000
    6270 A       6270       Ar      Ar      Ar      0.000000 39.950000
    6271 A       6271       Ar      Ar      Ar      0.000000 39.950000
    6272 A       6272       Ar      Ar      Ar      0.000000 39.950000
    6273 A       6273       Ar      Ar      Ar      0.000000 39.950000
    6274 A       6274       Ar      Ar      Ar      0.000000 39.950000
    6275 A       6275       Ar      Ar      Ar      0.000000 39.950000
    6276 A       6276       Ar      Ar      Ar      0.000000 39.950000
    6277 A       6277       Ar      Ar      Ar      0.000000 39.950000
    6278 A       6278       Ar      Ar      Ar      0.000000 39.950000
    6279 A       6279       Ar      Ar      Ar      0.000000 39.950000
    6280 A       6280       Ar      Ar      Ar      0.000000 39.950000
    6281 A       6281       Ar      Ar      Ar      0.000000 39.950000
    6282 A       6282       Ar      Ar      Ar      0.000000 39.950000
    6283 A       6283       Ar      Ar      Ar      0.000000 39.950000
    6284 A       6284       Ar      Ar      Ar      0.000000 39.950000
    6285 A       6285       Ar      Ar      Ar      0.000000 39.950000
    6286 A       6286       Ar      Ar      Ar      0.000000 39.950000
    6287 A       6287       Ar      Ar      Ar      0.000000 39.950000
    6288 A       6288       Ar      Ar      Ar      0.000000 39.950000
    6289 A       6289       Ar      Ar      Ar      0.000000 39.950000
    6290 A       6290       Ar      Ar      Ar      0.000000 39.950000
    6291 A       6291       Ar      Ar      Ar      0.000000 39.950000
    6292 A       6292       Ar      Ar      Ar      0.000000 39.950000
    6293 A       6293       Ar      Ar      Ar      0.000000 39.950000
    6294 A       6294       Ar      Ar      Ar      0.000000 39.950000
    6295 A       6295       Ar      Ar      Ar      0.000000 39.950000
    6296 A       6296       Ar      Ar      Ar      0.000000 39.950000
    6297 A       6297       Ar      Ar      Ar      0.000000 39.950000
    6298 A       6298       Ar      Ar      Ar      0.000000 39.950000
    6299 A       6299       Ar      Ar      Ar      0.000000 39.950000
    6300 A       6300       Ar      Ar      Ar      0.000000 39.950000
    6301 A       6301       Ar      Ar      Ar      0.000000 39.950000
    6302 A       6302       Ar      Ar      Ar      0.000000 39.950000
    6303 A       6303       Ar      Ar      Ar      0.000000 39.950000
    6304 A       6304       Ar      Ar      Ar      0.000000 39.950000
    6305 A       6305       Ar      Ar      Ar      0.000000 39.950000
    6306 A       6306       Ar      Ar      Ar      0.000000 39.950000
    6307 A       6307       Ar      Ar      Ar      0.000000 39.950000
    6308 A       6308       Ar      Ar      Ar      0.000000 39.950000
    6309 A       6309       Ar      Ar      Ar      0.000000 39.950000
    6310 A       6310       Ar      Ar      Ar      0.000000 39.950000
    6311 A       6311       Ar      Ar      Ar      0.000000 39.950000
    6312 A       6312       Ar      Ar      Ar      0.000000 39.950000
    6313 A       6313       Ar      Ar      Ar      0.000000 39.950000
    6314 A       6314       Ar      Ar      Ar      0.000000 39.950000
    6315 A       6315       Ar      Ar      Ar      0.000000 39.950000
    6316 A       6316       Ar      Ar      Ar      0.000000 39.950000
    6317 A       6317       Ar      Ar      Ar      0.000000 39.950000
    6318 A       6318       Ar      Ar      Ar      0.000000 39.950000
    6319 A       6319       Ar      Ar      Ar      0.000000 39.950000
    6320 A       6320       Ar      Ar      Ar      0.000000 39.950000
    6321 A       6321       Ar      Ar      Ar      0.000000 39.950000
    6322 A       6322       Ar      Ar      Ar      0.000000 39.950000
    6323 A       6323       Ar      Ar      Ar      0.000000 39.950000
    6324 A       6324       Ar      Ar      Ar      0.000000 39.950000
    6325 A       6325       Ar      Ar      Ar      0.000000 39.950000
    6326 A       6326       Ar      Ar      Ar      0.000000 39.950000
    6327 A       6327       Ar      Ar      Ar      0.000000 39.950000
    6328 A       6328       Ar      Ar      Ar      0.000000 39.950000
    6329 A       6329       Ar      Ar      Ar      0.000000 39.950000
    6330 A       6330       Ar      Ar      Ar      0.000000 39.950000
    6331 A       6331       Ar      Ar      Ar      0.000000 39.950000
    6332 A       6332       Ar      Ar      Ar      0.000000 39.950000
    6333 A       6333       Ar      Ar      Ar      0.000000 39.950000
    6334 A       6334       Ar      Ar      Ar      0.000000 39.950000
    6335 A       6335       Ar      Ar      Ar      0.000000 39.950000
    6336 A       6336       Ar      Ar      Ar      0.000000 39.950000
    6337 A       6337       Ar      Ar      Ar      0.000000 39.950000
    6338 A       6338       Ar      Ar      Ar      0.000000 39.950000
    6339 A       6339       Ar      Ar      Ar      0.000000 39.950000
    6340 A       6340       Ar      Ar      Ar      0.000000 39.950000
    6341 A       6341       Ar      Ar      Ar      0.000000 39.950000
    6342 A       6342       Ar      Ar      Ar      0.000000 39.950000
    6343 A       6343       Ar      Ar      Ar      0.000000 39.950000
    6344 A       6344       Ar      Ar      Ar      0.000000 39.950000
    6345 A       6345       Ar      Ar      Ar      0.000000 39.950000
    6346 A       6346       Ar      Ar      Ar      0.000000 39.950000
    6347 A       6347       Ar      Ar      Ar      0.000000 39.950000
    6348 A       6348       Ar      Ar      Ar      0.000000 39.950000
    6349 A       6349       Ar      Ar      Ar      0.000000 39.950000
    6350 A       6350       Ar      Ar      Ar      0.000000 39.950000
    6351 A       6351       Ar      Ar      Ar      0.000000 39.950000
    6352 A       6352       Ar      Ar      Ar      0.000000 39.950000
    6353 A       6353       Ar      Ar      Ar      0.000000 39.950000
    6354 A       6354       Ar      Ar      Ar      0.000000 39.950000
    6355 A       6355       Ar      Ar      Ar      0.000000 39.950000
    6356 A       6356       Ar      Ar      Ar      0.000000 39.950000
    6357 A       6357       Ar      Ar      Ar      0.000000 39.950000
    6358 A       6358       Ar      Ar      Ar      0.000000 39.950000
    6359 A       6359       Ar      Ar      Ar      0.000000 39.950000
    6360 A       6360       Ar      Ar      Ar      0.000000 39.950000
    6361 A       6361       Ar      Ar      Ar      0.000000 39.950000
    6362 A       6362       Ar      Ar      Ar      0.000000 39.950000
    6363 A       6363       Ar      Ar      Ar      0.000000 39.950000
    6364 A       6364       Ar      Ar      Ar      0.000000 39.950000
    6365 A       6365       Ar      Ar      Ar      0.000000 39.950000
    6366 A       6366       Ar      Ar      Ar      0.000000 39.950000
    6367 A       6367       Ar      Ar      Ar      0.000000 39.950000
    6368 A       6368       Ar      Ar      Ar      0.000000 39.950000
    6369 A       6369       Ar      Ar      Ar      0.000000 39.950000
    6370 A       6370       Ar      Ar      Ar      0.000000 39.950000
    6371 A       6371       Ar      Ar      Ar      0.000000 39.950000
    6372 A       6372       Ar      Ar      Ar      0.000000 39.950000
    6373 A       6373       Ar      Ar      Ar      0.000000 39.950000
    6374 A       6374       Ar      Ar      Ar      0.000000 39.950000
    6375 A       6375       Ar      Ar      Ar      0.000000 39.950000
    6376 A       6376       Ar      Ar      Ar      0.000000 39.950000
    6377 A       6377       Ar      Ar      Ar      0.000000 39.950000
    6378 A       6378       Ar      Ar      Ar      0.000000 39.950000
    6379 A       6379       Ar      Ar      Ar      0.000000 39.950000
    6380 A       6380       Ar      Ar      Ar      0.000000 39.950000
    6381 A       6381       Ar      Ar      Ar      0.000000 39.950000
    6382 A       6382       Ar      Ar      Ar      0.000000 39.950000
    6383 A       6383       Ar      Ar      Ar      0.000000 39.950000
    6384 A       6384       Ar      Ar      Ar      0.000000 39.950000
    6385 A       6385       Ar      Ar      Ar      0.000000 39.950000
    6386 A       6386       Ar      Ar      Ar      0.000000 39.950000
    6387 A       6387       Ar      Ar      Ar      0.000000 39.950000
    6388 A       6388       Ar      Ar      Ar      0.000000 39.950000
    6389 A       6389       Ar      Ar      Ar      0.000000 39.950000
    6390 A       6390       Ar      Ar      Ar      0.000000 39.950000
    6391 A       6391       Ar      Ar      Ar      0.000000 39.950000
    6392 A       6392       Ar      Ar      Ar      0.000000 39.950000
    6393 A       6393       Ar      Ar      Ar      0.000000 39.950000
    6394 A       6394       Ar      Ar      Ar      0.000000 39.950000
    6395 A       6395       Ar      Ar      Ar      0.000000 39.950000
    6396 A       6396       Ar      Ar      Ar      0.000000 39.950000
    6397 A       6397       Ar      Ar      Ar      0.000000 39.950000
    6398 A       6398       Ar      Ar      Ar      0.000000 39.950000
    6399 A       6399       Ar      Ar      Ar      0.000000 39.950000
    6400 A       6400       Ar      Ar      Ar      0.000000 39.950000

       0 !NBOND

       0 !NTHETA

       0 !NPHI

       0 !NIMPHI


       0 !NDON: donors



       0 !NACC: acceptors



       0 !NNB

      0       0       0       0       0       0       0       0
      0       0       0       0       0       0       0       0
      0       0       0       0       0       0       0       0
      0       0       0       0       0       0       0       0
      0       0       0       0       0       0       0       0
      0       0       0       0       0       0       0       0
      0       0       0       0       0       0       0       0
      0       0       0       0       0       0       0       0
      0       0       0       0       0       0       0       0
      0       0       0       0       0       0       0       0
      0       0       0       0       0       0       0       0
      0       0       0       0       0       0       0       0
      0       0       0       0       0       0       0       0
      0       0       0       0       0       0       0       0
      0       0       0       0       0       0       0       0
      0       0       0       0       0       0       0       0
      0       0       0       0       0       0       0       0
      0       0       0       0       0       0       0       0
      0       0       0       0       0       0       0       0
      0       0       0       0       0       0       0       0
      0       0       0       0       0       0       0       0
      0       0       0       0       0       0       0       0
      0       0       0       0       0       0       0       0
      0       0       0       0       0       0       0       0
      0       0       0       0       0       0       0       0
      0       0       0       0       0       0       0       0
      0       0       0       0       0       0       0       0
      0       0       0       0       0       0       0       0
      0       0       0       0       0       0       0       0
      0       0       0       0       0       0       0       0
      0       0       0       0       0       0       0       0
      0       0       0       0       0       0       0       0
      0       0       0       0       0       0       0       0
      0       0       0       0       0       0       0       0
      0       0       0       0       0       0       0       0
      0       0       0       0       0       0       0       0
      0       0       0       0       0       0       0       0
      0       0       0       0       0       0       0       0
      0       0       0       0       0       0       0       0
      0       0       0       0       0       0       0       0
      0       0       0       0       0       0       0       0
      0       0       0       0       0       0       0       0
      0       0       0       0       0       0       0       0
      0       0       0       0       0       0       0       0
      0       0       0       0       0       0       0       0
      0       0       0       0       0       0       0       0
      0       0       0       0       0       0       0       0
      0       0       0       0       0       0       0       0
      0       0       0       0       0       0       0       0
      0       0       0       0       0       0       0       0
      0       0       0       0       0       0       0       0
      0       0       0       0       0       0       0       0
      0       0       0       0       0       0       0       0
      0       0       0       0       0       0       0       0
      0       0       0       0       0       0       0       0
      0       0       0       0       0       0       0       0
      0       0       0       0       0       0       0       0
      0       0       0       0       0       0       0       0
      0       0       0       0       0       0       0       0
      0       0       0       0       0       0       0       0
      0       0       0       0       0       0       0       0
      0       0       0       0       0       0       0       0
      0       0       0       0       0       0       0       0
      0       0       0       0       0       0       0       0
      0       0       0       0       0       0       0       0
      0       0       0       0       0       0       0       0
      0       0       0       0       0       0       0       0
      0       0       0       0       0       0       0       0
      0       0       0       0       0       0       0       0
      0       0       0       0       0       0       0       0
      0       0       0       0       0       0       0       0
      0       0       0       0       0       0       0       0
      0       0       0       0       0       0       0       0
      0       0       0       0       0       0       0       0
      0       0       0       0       0       0       0       0
      0       0       0       0       0       0       0       0
      0       0       0       0       0       0       0       0
      0       0       0       0       0       0       0       0
      0       0       0       0       0       0       0       0
      0       0       0       0       0       0       0       0
      0       0       0       0       0       0       0       0
      0       0       0       0       0       0       0       0
      0       0       0       0       0       0       0       0
      0       0       0       0       0       0       0       0
      0       0       0       0       0       0       0       0
      0       0       0       0       0       0       0       0
      0       0       0       0       0       0       0       0
      0       0       0       0       0       0       0       0
      0       0       0       0       0       0       0       0
      0       0       0       0       0       0       0       0
      0       0       0       0       0       0       0       0
      0       0       0       0       0       0       0       0
      0       0       0       0       0       0       0       0
      0       0       0       0       0       0       0       0
      0       0       0       0       0       0       0       0
      0       0       0       0       0       0       0       0
      0       0       0       0       0       0       0       0
      0       0       0       0       0       0       0       0
      0       0       0       0       0       0       0       0
      0       0       0       0       0       0       0       0
      0       0       0       0       0       0       0       0
      0       0       0       0       0       0       0       0
      0       0       0       0       0       0       0       0
      0       0       0       0       0       0       0       0
      0       0       0       0       0       0       0       0
      0       0       0       0       0       0       0       0
      0       0       0       0       0       0       0       0
      0       0       0       0       0       0       0       0
      0       0       0       0       0       0       0       0
      0       0       0       0       0       0       0       0
      0       0       0       0       0       0       0       0
      0       0       0       0       0       0       0       0
      0       0       0       0       0       0       0       0
      0       0       0       0       0       0       0       0
      0       0       0       0       0       0       0       0
      0       0       0       0       0       0       0       0
      0       0       0       0       0       0       0       0
      0       0       0       0       0       0       0       0
      0       0       0       0       0       0       0       0
      0       0       0       0       0       0       0       0
      0       0       0       0       0       0       0       0
      0       0       0       0       0       0       0       0
      0       0       0       0       0       0       0       0
      0       0       0       0       0       0       0       0
      0       0       0       0       0       0       0       0
      0       0       0       0       0       0       0       0
      0       0       0       0       0       0       0       0
      0       0       0       0       0       0       0       0
      0       0       0       0       0       0       0       0
      0       0       0       0       0       0       0       0
      0       0       0       0       0       0       0       0
      0       0       0       0       0       0       0       0
      0       0       0       0       0       0       0       0
      0       0       0       0       0       0       0       0
      0       0       0       0       0       0       0       0
      0       0       0       0       0       0       0       0
      0       0       0       0       0       0       0       0
      0       0       0       0       0       0       0       0
      0       0       0       0       0       0       0       0
      0       0       0       0       0       0       0       0
      0       0       0       0       0       0       0       0
      0       0       0       0       0       0       0       0
      0       0       0       0       0       0       0       0
      0       0       0       0       0       0       0       0
      0       0       0       0       0       0       0       0
      0       0       0       0       0       0       0       0
      0       0       0       0       0       0       0       0
      0       0       0       0       0       0       0       0
      0       0       0       0       0       0       0       0
      0       0       0       0       0       0       0       0
      0       0       0       0       0       0       0       0
      0       0       0       0       0       0       0       0
      0       0       0       0       0       0       0       0
      0       0       0       0       0       0       0       0
      0       0       0       0       0       0       0       0
      0       0       0       0       0       0       0       0
      0       0       0       0       0       0       0       0
      0       0       0       0       0       0       0       0
      0       0       0       0       0       0       0       0
      0       0       0       0       0       0       0       0
      0       0       0       0       0       0       0       0
      0       0       0       0       0       0       0       0
      0       0       0       0       0       0       0       0
      0       0       0       0       0       0       0       0
      0       0       0       0       0       0       0       0
      0       0       0       0       0       0       0       0
      0       0       0       0       0       0       0       0
      0       0       0       0       0       0       0       0
      0       0       0       0       0       0       0       0
      0       0       0       0       0       0       0       0
      0       0       0       0       0       0       0       0
      0       0       0       0       0       0       0       0
      0       0       0       0       0       0       0       0
      0       0       0       0       0       0       0       0
      0       0       0       0       0       0       0       0
      0       0       0       0       0       0       0       0
      0       0       0       0       0       0       0       0
      0       0       0       0       0       0       0       0
      0       0       0       0       0       0       0       0
      0       0       0       0       0       0       0       0
      0       0       0       0       0       0       0       0
      0       0       0       0       0       0       0       0
      0       0       0       0       0       0       0       0
      0       0       0       0       0       0       0       0
      0       0       0       0       0       0       0       0
      0       0       0       0       0       0       0       0
      0       0       0       0       0       0       0       0
      0       0       0       0       0       0       0       0
      0       0       0       0       0       0       0       0
      0       0       0       0       0       0       0       0
      0       0       0       0       0       0       0       0
      0       0       0       0       0       0       0       0
      0       0       0       0       0       0       0       0
      0       0       0       0       0       0       0       0
      0       0       0       0       0       0       0       0
      0       0       0       0       0       0       0       0
      0       0       0       0       0       0       0       0
      0       0       0       0       0       0       0       0
      0       0       0       0       0       0       0       0
      0       0       0       0       0       0       0       0
      0       0       0       0       0       0       0       0
      0       0       0       0       0       0       0       0
      0       0       0       0       0       0       0       0
      0       0       0       0       0       0       0       0
      0       0       0       0       0       0       0       0
      0       0       0       0       0       0       0       0
      0       0       0       0       0       0       0       0
      0       0       0       0       0       0       0       0
      0       0       0       0       0       0       0       0
      0       0       0       0       0       0       0       0
      0       0       0       0       0       0       0       0
      0       0       0       0       0       0       0       0
      0       0       0       0       0       0       0       0
      0       0       0       0       0       0       0       0
      0       0       0       0       0       0       0       0
      0       0       0       0       0       0       0       0
      0       0       0       0       0       0       0       0
      0       0       0       0       0       0       0       0
      0       0       0       0       0       0       0       0
      0       0       0       0       0       0       0       0
      0       0       0       0       0       0       0       0
      0       0       0       0       0       0       0       0
      0       0       0       0       0       0       0       0
      0       0       0       0       0       0       0       0
      0       0       0       0       0       0       0       0
      0       0       0       0       0       0       0       0
      0       0       0       0       0       0       0       0
      0       0       0       0       0       0       0       0
      0       0       0       0       0       0       0       0
      0       0       0       0       0       0       0       0
      0       0       0       0       0       0       0       0
      0       0       0       0       0       0       0       0
      0       0       0       0       0       0       0       0
      0       0       0       0       0       0       0       0
      0       0       0       0       0       0       0       0
      0       0       0       0       0       0       0       0
      0       0       0       0       0       0       0       0
      0       0       0       0       0       0       0       0
      0       0       0       0       0       0       0       0
      0       0       0       0       0       0       0       0
      0       0       0       0       0       0       0       0
      0       0       0       0       0       0       0       0
      0       0       0       0       0       0       0       0
      0       0       0       0       0       0       0       0
      0       0       0       0       0       0       0       0
      0       0       0       0       0       0       0       0
      0       0       0       0       0       0       0       0
      0       0       0       0       0       0       0       0
      0       0       0       0       0       0       0       0
      0       0       0       0       0       0       0       0
      0       0       0       0       0       0       0       0
      0       0       0       0       0       0       0       0
      0       0       0       0       0       0       0       0
      0       0       0       0       0       0       0       0
      0       0       0       0       0       0       0       0
      0       0       0       0       0       0       0       0
      0       0       0       0       0       0       0       0
      0       0       0       0       0       0       0       0
      0       0       0       0       0       0       0       0
      0       0       0       0       0       0       0       0
      0       0       0       0       0       0       0       0
      0       0       0       0       0       0       0       0
      0       0       0       0       0       0       0       0
      0       0       0       0       0       0       0       0
      0       0       0       0       0       0       0       0
      0       0       0       0       0       0       0       0
      0       0       0       0       0       0       0       0
      0       0       0       0       0       0       0       0
      0       0       0       0       0       0       0       0
      0       0       0       0       0       0       0       0
      0       0       0       0       0       0       0       0
      0       0       0       0       0       0       0       0
      0       0       0       0       0       0       0       0
      0       0       0       0       0       0       0       0
      0       0       0       0       0       0       0       0
      0       0       0       0       0       0       0       0
      0       0       0       0       0       0       0       0
      0       0       0       0       0       0       0       0
      0       0       0       0       0       0       0       0
      0       0       0       0       0       0       0       0
      0       0       0       0       0       0       0       0
      0       0       0       0       0       0       0       0
      0       0       0       0       0       0       0       0
      0       0       0       0       0       0       0       0
      0       0       0       0       0       0       0       0
      0       0       0       0       0       0       0       0
      0       0       0       0       0       0       0       0
      0       0       0       0       0       0       0       0
      0       0       0       0       0       0       0       0
      0       0       0       0       0       0       0       0
      0       0       0       0       0       0       0       0
      0       0       0       0       0       0       0       0
      0       0       0       0       0       0       0       0
      0       0       0       0       0       0       0       0
      0       0       0       0       0       0       0       0
      0       0       0       0       0       0       0       0
      0       0       0       0       0       0       0       0
      0       0       0       0       0       0       0       0
      0       0       0       0       0       0       0       0
      0       0       0       0       0       0       0       0
      0       0       0       0       0       0       0       0
      0       0       0       0       0       0       0       0
      0       0       0       0       0       0       0       0
      0       0       0       0       0       0       0       0
      0       0       0       0       0       0       0       0
      0       0       0       0       0       0       0       0
      0       0       0       0       0       0       0       0
      0       0       0       0       0       0       0       0
      0       0       0       0       0       0       0       0
      0       0       0       0       0       0       0       0
      0       0       0       0       0       0       0       0
      0       0       0       0       0       0       0       0
      0       0       0       0       0       0       0       0
      0       0       0       0       0       0       0       0
      0       0       0       0       0       0       0       0
      0       0       0       0       0       0       0       0
      0       0       0       0       0       0       0       0
      0       0       0       0       0       0       0       0
      0       0       0       0       0       0       0       0
      0       0       0       0       0       0       0       0
      0       0       0       0       0       0       0       0
      0       0       0       0       0       0       0       0
      0       0       0       0       0       0       0       0
      0       0       0       0       0       0       0       0
      0       0       0       0       0       0       0       0
      0       0       0       0       0       0       0       0
      0       0       0       0       0       0       0       0
      0       0       0       0       0       0       0       0
      0       0       0       0       0       0       0       0
      0       0       0       0       0       0       0       0
      0       0       0       0       0       0       0       0
      0       0       0       0       0       0       0       0
      0       0       0       0       0       0       0       0
      0       0       0       0       0       0       0       0
      0       0       0       0       0       0       0       0
      0       0       0       0       0       0       0       0
      0       0       0       0       0       0       0       0
      0       0       0       0       0       0       0       0
      0       0       0       0       0       0       0       0
      0       0       0       0       0       0       0       0
      0       0       0       0       0       0       0       0
      0       0       0       0       0       0       0       0
      0       0       0       0       0       0       0       0
      0       0       0       0       0       0       0       0
      0       0       0       0       0       0       0       0
      0       0       0       0       0       0       0       0
      0       0       0       0       0       0       0       0
      0       0       0       0       0       0       0       0
      0       0       0       0       0       0       0       0
      0       0       0       0       0       0       0       0
      0       0       0       0       0       0       0       0
      0       0       0       0       0       0       0       0
      0       0       0       0       0       0       0       0
      0       0       0       0       0       0       0       0
      0       0       0       0       0       0       0       0
      0       0       0       0       0       0       0       0
      0       0       0       0       0       0       0       0
      0       0       0       0       0       0       0       0
      0       0       0       0       0       0       0       0
      0       0       0       0       0       0       0       0
      0       0       0       0       0       0       0       0
      0       0       0       0       0       0       0       0
      0       0       0       0       0       0       0       0
      0       0       0       0       0       0       0       0
      0       0       0       0       0       0       0       0
      0       0       0       0       0       0       0       0
      0       0       0       0       0       0       0       0
      0       0       0       0       0       0       0       0
      0       0       0       0       0       0       0       0
      0       0       0       0       0       0       0       0
      0       0       0       0       0       0       0       0
      0       0       0       0       0       0       0       0
      0       0       0       0       0       0       0       0
      0       0       0       0       0       0       0       0
      0       0       0       0       0       0       0       0
      0       0       0       0       0       0       0       0
      0       0       0       0       0       0       0       0
      0       0       0       0       0       0       0       0
      0       0       0       0       0       0       0       0
      0       0       0       0       0       0       0       0
      0       0       0       0       0       0       0       0
      0       0       0       0       0       0       0       0
      0       0       0       0       0       0       0       0
      0       0       0       0       0       0       0       0
      0       0       0       0       0       0       0       0
      0       0       0       0       0       0       0       0
      0       0       0       0       0       0       0       0
      0       0       0       0       0       0       0       0
      0       0       0       0       0       0       0       0
      0       0       0       0       0       0       0       0
      0       0       0       0       0       0       0       0
      0       0       0       0       0       0       0       0
      0       0       0       0       0       0       0       0
      0       0       0       0       0       0       0       0
      0       0       0       0       0       0       0       0
      0       0       0       0       0       0       0       0
      0       0       0       0       0       0       0       0
      0       0       0       0       0       0       0       0
      0       0       0       0       0       0       0       0
      0       0       0       0       0       0       0       0
      0       0       0       0       0       0       0       0
      0       0       0       0       0       0       0       0
      0       0       0       0       0       0       0       0
      0       0       0       0       0       0       0       0
      0       0       0       0       0       0       0       0
      0       0       0       0       0       0       0       0
      0       0       0       0       0       0       0       0
      0       0       0       0       0       0       0       0
      0       0       0       0       0       0       0       0
      0       0       0       0       0       0       0       0
      0       0       0       0       0       0       0       0
      0       0       0       0       0       0       0       0
      0       0       0       0       0       0       0       0
      0       0       0       0       0       0       0       0
      0       0       0       0       0       0       0       0
      0       0       0       0       0       0       0       0
      0       0       0       0       0       0       0       0
      0       0       0       0       0       0       0       0
      0       0       0       0       0       0       0       0
      0       0       0       0       0       0       0       0
      0       0       0       0       0       0       0       0
      0       0       0       0       0       0       0       0
      0       0       0       0       0       0       0       0
      0       0       0       0       0       0       0       0
      0       0       0       0       0       0       0       0
      0       0       0       0       0       0       0       0
      0       0       0       0       0       0       0       0
      0       0       0       0       0       0       0       0
      0       0       0       0       0       0       0       0
      0       0       0       0       0       0       0       0
      0       0       0       0       0       0       0       0
      0       0       0       0       0       0       0       0
      0       0       0       0       0       0       0       0
      0       0       0       0       0       0       0       0
      0       0       0       0       0       0       0       0
      0       0       0       0       0       0       0       0
      0       0       0       0       0       0       0       0
      0       0       0       0       0       0       0       0
      0       0       0       0       0       0       0       0
      0       0       0       0       0       0       0       0
      0       0       0       0       0       0       0       0
      0       0       0       0       0       0       0       0
      0       0       0       0       0       0       0       0
      0       0       0       0       0       0       0       0
      0       0       0       0       0       0       0       0
      0       0       0       0       0       0       0       0
      0       0       0       0       0       0       0       0
      0       0       0       0       0       0       0       0
      0       0       0       0       0       0       0       0
      0       0       0       0       0       0       0       0
      0       0       0       0       0       0       0       0
      0       0       0       0       0       0       0       0
      0       0       0       0       0       0       0       0
      0       0       0       0       0       0       0       0
      0       0       0       0       0       0       0       0
      0       0       0       0       0       0       0       0
      0       0       0       0       0       0       0       0
      0       0       0       0       0       0       0       0
      0       0       0       0       0       0       0       0
      0       0       0       0       0       0       0       0
      0       0       0       0       0       0       0       0
      0       0       0       0       0       0       0       0
      0       0       0       0       0       0       0       0
      0       0       0       0       0       0       0       0
      0       0       0       0       0       0       0       0
      0       0       0       0       0       0       0       0
      0       0       0       0       0       0       0       0
      0       0       0       0       0       0       0       0
      0       0       0       0       0       0       0       0
      0       0       0       0       0       0       0       0
      0       0       0       0       0       0       0       0
      0       0       0       0       0       0       0       0
      0       0       0       0       0       0       0       0
      0       0       0       0       0       0       0       0
      0       0       0       0       0       0       0       0
      0       0       0       0       0       0       0       0
      0       0       0       0       0       0       0       0
      0       0       0       0       0       0       0       0
      0       0       0       0       0       0       0       0
      0       0       0       0       0       0       0       0
      0       0       0       0       0       0       0       0
      0       0       0       0       0       0       0       0
      0       0       0       0       0       0       0       0
      0       0       0       0       0       0       0       0
      0       0       0       0       0       0       0       0
      0       0       0       0       0       0       0       0
      0       0       0       0       0       0       0       0
      0       0       0       0       0       0       0       0
      0       0       0       0       0       0       0       0
      0       0       0       0       0       0       0       0
      0       0       0       0       0       0       0       0
      0       0       0       0       0       0       0       0
      0       0       0       0       0       0       0       0
      0       0       0       0       0       0       0       0
      0       0       0       0       0       0       0       0
      0       0       0       0       0       0       0       0
      0       0       0       0       0       0       0       0
      0       0       0       0       0       0       0       0
      0       0       0       0       0       0       0       0
      0       0       0       0       0       0       0       0
      0       0       0       0       0       0       0       0
      0       0       0       0       0       0       0       0
      0       0       0       0       0       0       0       0
      0       0       0       0       0       0       0       0
      0       0       0       0       0       0       0       0
      0       0       0       0       0       0       0       0
      0       0       0       0       0       0       0       0
      0       0       0       0       0       0       0       0
      0       0       0       0       0       0       0       0
      0       0       0       0       0       0       0       0
      0       0       0       0       0       0       0       0
      0       0       0       0       0       0       0       0
      0       0       0       0       0       0       0       0
      0       0       0       0       0       0       0       0
      0       0       0       0       0       0       0       0
      0       0       0       0       0       0       0       0
      0       0       0       0       0       0       0       0
      0       0       0       0       0       0       0       0
      0       0       0       0       0       0       0       0
      0       0       0       0       0       0       0       0
      0       0       0       0       0       0       0       0
      0       0       0       0       0       0       0       0
      0       0       0       0       0       0       0       0
      0       0       0       0       0       0       0       0
      0       0       0       0       0       0       0       0
      0       0       0       0       0       0       0       0
      0       0       0       0       0       0       0       0
      0       0       0       0       0       0       0       0
      0       0       0       0       0       0       0       0
      0       0       0       0       0       0       0       0
      0       0       0       0       0       0       0       0
      0       0       0       0       0       0       0       0
      0       0       0       0       0       0       0       0
      0       0       0       0       0       0       0       0
      0       0       0       0       0       0       0       0
      0       0       0       0       0       0       0       0
      0       0       0       0       0       0       0       0
      0       0       0       0       0       0       0       0
      0       0       0       0       0       0       0       0
      0       0       0       0       0       0       0       0
      0       0       0       0       0       0       0       0
      0       0       0       0       0       0       0       0
      0       0       0       0       0       0       0       0
      0       0       0       0       0       0       0       0
      0       0       0       0       0       0       0       0
      0       0       0       0       0       0       0       0
      0       0       0       0       0       0       0       0
      0       0       0       0       0       0       0       0
      0       0       0       0       0       0       0       0
      0       0       0       0       0       0       0       0
      0       0       0       0       0       0       0       0
      0       0       0       0       0       0       0       0
      0       0       0       0       0       0       0       0
      0       0       0       0       0       0       0       0
      0       0       0       0       0       0       0       0
      0       0       0       0       0       0       0       0
      0       0       0       0       0       0       0       0
      0       0       0       0       0       0       0       0
      0       0       0       0       0       0       0       0
      0       0       0       0       0       0       0       0
      0       0       0       0       0       0       0       0
      0       0       0       0       0       0       0       0
      0       0       0       0       0       0       0       0
      0       0       0       0       0       0       0       0
      0       0       0       0       0       0       0       0
      0       0       0       0       0       0       0       0
      0       0       0       0       0       0       0       0
      0       0       0       0       0       0       0       0
      0       0       0       0       0       0       0       0
      0       0       0       0       0       0       0       0
      0       0       0       0       0       0       0       0
      0       0       0       0       0       0       0       0
      0       0       0       0       0       0       0       0
      0       0       0       0       0       0       0       0
      0       0       0       0       0       0       0       0
      0       0       0       0       0       0       0       0
      0       0       0       0       0       0       0       0
      0       0       0       0       0       0       0       0
      0       0       0       0       0       0       0       0
      0       0       0       0       0       0       0       0
      0       0       0       0       0       0       0       0
      0       0       0       0       0       0       0       0
      0       0       0       0       0       0       0       0
      0       0       0       0       0       0       0       0
      0       0       0       0       0       0       0       0
      0       0       0       0       0       0       0       0
      0       0       0       0       0       0       0       0
      0       0       0       0       0       0       0       0
      0       0       0       0       0       0       0       0
      0       0       0       0       0       0       0       0
      0       0       0       0       0       0       0       0
      0       0       0       0       0       0       0       0
      0       0       0       0       0       0       0       0
      0       0       0       0       0       0       0       0
      0       0       0       0       0       0       0       0
      0       0       0       0       0       0       0       0
      0       0       0       0       0       0       0       0
      0       0       0       0       0       0       0       0
      0       0       0       0       0       0       0       0
      0       0       0       0       0       0       0       0
      0       0       0       0       0       0       0       0
      0       0       0       0       0       0       0       0
      0       0       0       0       0       0       0       0
      0       0       0       0       0       0       0       0
      0       0       0       0       0       0       0       0
      0       0       0       0       0       0       0       0
      0       0       0       0       0       0       0       0
      0       0       0       0       0       0       0       0
      0       0       0       0       0       0       0       0
      0       0       0       0       0       0       0       0
      0       0       0       0       0       0       0       0
      0       0       0       0       0       0       0       0
      0       0       0       0       0       0       0       0
      0       0       0       0       0       0       0       0
      0       0       0       0       0       0       0       0
      0       0       0       0       0       0       0       0
      0       0       0       0       0       0       0       0
      0       0       0       0       0       0       0       0
      0       0       0       0       0       0       0       0
      0       0       0       0       0       0       0       0
      0       0       0       0       0       0       0       0
      0       0       0       0       0       0       0       0
      0       0       0       0       0       0       0       0
      0       0       0       0       0       0       0       0
      0       0       0       0       0       0       0       0
      0       0       0       0       0       0       0       0
      0       0       0       0       0       0       0       0
      0       0       0       0       0       0       0       0
      0       0       0       0       0       0       0       0
      0       0       0       0       0       0       0       0
      0       0       0       0       0       0       0       0
      0       0       0       0       0       0       0       0
      0       0       0       0       0       0       0       0
      0       0       0       0       0       0       0       0
      0       0       0       0       0       0       0       0
      0       0       0       0       0       0       0       0
      0       0       0       0       0       0       0       0
      0       0       0       0       0       0       0       0
      0       0       0       0       0       0       0       0
      0       0       0       0       0       0       0       0
      0       0       0       0       0       0       0       0
      0       0       0       0       0       0       0       0
      0       0       0       0       0       0       0       0
      0       0       0       0       0       0       0       0
      0       0       0       0       0       0       0       0
      0       0       0       0       0       0       0       0
      0       0       0       0       0       0       0       0
      0       0       0       0       0       0       0       0
      0       0       0       0       0       0       0       0
      0       0       0       0       0       0       0       0
      0       0       0       0       0       0       0       0
      0       0       0       0       0       0       0       0
      0       0       0       0       0       0       0       0
      0       0       0       0       0       0       0       0
      0       0       0       0       0       0       0       0
      0       0       0       0       0       0       0       0
      0       0       0       0       0       0       0       0
      0       0       0       0       0       0       0       0
      0       0       0       0       0       0       0       0
      0       0       0       0       0       0       0       0
      0       0       0       0       0       0       0       0
      0       0       0       0       0       0       0       0
      0       0       0       0       0       0       0       0
      0       0       0       0       0       0       0       0
      0       0       0       0       0       0       0       0
      0       0       0       0       0       0       0       0
      0       0       0       0       0       0       0       0
      0       0       0       0       0       0       0       0
      0       0       0       0       0       0       0       0
      0       0       0       0       0       0       0       0
      0       0       0       0       0       0       0       0
      0       0       0       0       0       0       0       0
      0       0       0       0       0       0       0       0
      0       0       0       0       0       0       0       0
      0       0       0       0       0       0       0       0
      0       0       0       0       0       0       0       0
      0       0       0       0       0       0       0       0
      0       0       0       0       0       0       0       0
      0       0       0       0       0       0       0       0
      0       0       0       0       0       0       0       0
      0       0       0       0       0       0       0       0
      0       0       0       0       0       0       0       0
      0       0       0       0       0       0       0       0
      0       0       0       0       0       0       0       0
      0       0       0       0       0       0       0       0
      0       0       0       0       0       0       0       0
      0       0       0       0       0       0       0       0
      0       0       0       0       0       0       0       0
      0       0       0       0       0       0       0       0
      0       0       0       0       0       0       0       0
      0       0       0       0       0       0       0       0
      0       0       0       0       0       0       0       0
      0       0       0       0       0       0       0       0
      0       0       0       0       0       0       0       0
      0       0       0       0       0       0       0       0
      0       0       0       0       0       0       0       0
      0       0       0       0       0       0       0       0
      0       0       0       0       0       0       0       0
      0       0       0       0       0       0       0       0
      0       0       0       0       0       0       0       0
      0       0       0       0       0       0       0       0
      0       0       0       0       0       0       0       0
      0       0       0       0       0       0       0       0
      0       0       0       0       0       0       0       0
      0       0       0       0       0       0       0       0
      0       0       0       0       0       0       0       0
      0       0       0       0       0       0       0       0
      0       0       0       0       0       0       0       0
      0       0       0       0       0       0       0       0
      0       0       0       0       0       0       0       0
      0       0       0       0       0       0       0       0
      0       0       0       0       0       0       0       0
      0       0       0       0       0       0       0       0
      0       0       0       0       0       0       0       0
      0       0       0       0       0       0       0       0
      0       0       0       0       0       0       0       0
      0       0       0       0       0       0       0       0
      0       0       0       0       0       0       0       0
      0       0       0       0       0       0       0       0
      0       0       0       0       0       0       0       0
      0       0       0       0       0       0       0       0
      0       0       0       0       0       0       0       0
      0       0       0       0       0       0       0       0
      0       0       0       0       0       0       0       0
      0       0       0       0       0       0       0       0
      0       0       0       0       0       0       0       0
      0       0       0       0       0       0       0       0
      0       0       0       0       0       0       0       0
      0       0       0       0       0       0       0       0
      0       0       0       0       0       0       0       0
      0       0       0       0       0       0       0       0
      0       0       0       0       0       0       0       0
      0       0       0       0       0       0       0       0
      0       0       0       0       0       0       0       0
      0       0       0       0       0       0       0       0
      0       0       0       0       0       0       0       0
      0       0       0       0       0       0       0       0
      0       0       0       0       0       0       0       0
      0       0       0       0       0       0       0       0
      0       0       0       0       0       0       0       0
      0       0       0       0       0       0       0       0
      0       0       0       0       0       0       0       0
      0       0       0       0       0       0       0       0
      0       0       0       0       0       0       0       0
      0       0       0       0       0       0       0       0
      0       0       0       0       0       0       0       0
      0       0       0       0       0       0       0       0
      0       0       0       0       0       0       0       0
      0       0       0       0       0       0       0       0
      0       0       0       0       0       0       0       0
      0       0       0       0       0       0       0       0
      0       0       0       0       0       0       0       0
      0       0       0       0       0       0       0       0
      0       0       0       0       0       0       0       0
      0       0       0       0       0       0       0       0
      0       0       0       0       0       0       0       0
      0       0       0       0       0       0       0       0
      0       0       0       0       0       0       0       0
      0       0       0       0       0       0       0       0
      0       0       0       0       0       0       0       0
      0       0       0       0       0       0       0       0
      0       0       0       0       0       0       0       0
      0       0       0       0       0       0       0       0
      0       0       0       0       0       0       0       0
      0       0       0       0       0       0       0       0
      0       0       0       0       0       0       0       0
      0       0       0       0       0       0       0       0
      0       0       0       0       0       0       0       0
      0       0       0       0       0       0       0       0
      0       0       0       0       0       0       0       0
      0       0       0       0       0       0       0       0
      0       0       0       0       0       0       0       0
      0       0       0       0       0       0       0       0
      0       0       0       0       0       0       0       0
      0       0       0       0       0       0       0       0
      0       0       0       0       0       0       0       0
      0       0       0       0       0       0       0       0
      0       0       0       0       0       0       0       0
      0       0       0       0       0       0       0       0
      0       0       0       0       0       0       0       0
      0       0       0       0       0       0       0       0
      0       0       0       0       0       0       0       0
      0       0       0       0       0       0       0       0
      0       0       0       0       0       0       0       0
      0       0       0       0       0       0       0       0
      0       0       0       0       0       0       0       0
      0       0       0       0       0       0       0       0
      0       0       0       0       0       0       0       0
      0       0       0       0       0       0       0       0
      0       0       0       0       0       0       0       0
      0       0       0       0       0       0       0       0
      0       0       0       0       0       0       0       0
      0       0       0       0       0       0       0       0
      0       0       0       0       0       0       0       0
      0       0       0       0       0       0       0       0
      0       0       0       0       0       0       0       0
      0       0       0       0       0       0       0       0
      0       0       0       0       0       0       0       0
      0       0       0       0       0       0       0       0
      0       0       0       0       0       0       0       0


       1       0 !NGRP

