PSF NAMD

       0 !NTITLE

    1000 !NATOM
       1 loop    1          P       P       P       0.000000 121.000000
       2 loop    1          B       B       B       0.000000 181.000000
       3 loop    2          P       P       P       0.000000 121.000000
       4 loop    2          B       B       B       0.000000 181.000000
       5 loop    3          P       P       P       0.000000 121.000000
       6 loop    3          B       B       B       0.000000 181.000000
       7 loop    4          P       P       P       0.000000 121.000000
       8 loop    4          B       B       B       0.000000 181.000000
       9 loop    5          P       P       P       0.000000 121.000000
      10 loop    5          B       B       B       0.000000 181.000000
      11 loop    6          P       P       P       0.000000 121.000000
      12 loop    6          B       B       B       0.000000 181.000000
      13 loop    7          P       P       P       0.000000 121.000000
      14 loop    7          B       B       B       0.000000 181.000000
      15 loop    8          P       P       P       0.000000 121.000000
      16 loop    8          B       B       B       0.000000 181.000000
      17 loop    9          P       P       P       0.000000 121.000000
      18 loop    9          B       B       B       0.000000 181.000000
      19 loop    10         P       P       P       0.000000 121.000000
      20 loop    10         B       B       B       0.000000 181.000000
      21 loop    11         P       P       P       0.000000 121.000000
      22 loop    11         B       B       B       0.000000 181.000000
      23 loop    12         P       P       P       0.000000 121.000000
      24 loop    12         B       B       B       0.000000 181.000000
      25 loop    13         P       P       P       0.000000 121.000000
      26 loop    13         B       B       B       0.000000 181.000000
      27 loop    14         P       P       P       0.000000 121.000000
      28 loop    14         B       B       B       0.000000 181.000000
      29 loop    15         P       P       P       0.000000 121.000000
      30 loop    15         B       B       B       0.000000 181.000000
      31 loop    16         P       P       P       0.000000 121.000000
      32 loop    16         B       B       B       0.000000 181.000000
      33 loop    17         P       P       P       0.000000 121.000000
      34 loop    17         B       B       B       0.000000 181.000000
      35 loop    18         P       P       P       0.000000 121.000000
      36 loop    18         B       B       B       0.000000 181.000000
      37 loop    19         P       P       P       0.000000 121.000000
      38 loop    19         B       B       B       0.000000 181.000000
      39 loop    20         P       P       P       0.000000 121.000000
      40 loop    20         B       B       B       0.000000 181.000000
      41 loop    21         P       P       P       0.000000 121.000000
      42 loop    21         B       B       B       0.000000 181.000000
      43 loop    22         P       P       P       0.000000 121.000000
      44 loop    22         B       B       B       0.000000 181.000000
      45 loop    23         P       P       P       0.000000 121.000000
      46 loop    23         B       B       B       0.000000 181.000000
      47 loop    24         P       P       P       0.000000 121.000000
      48 loop    24         B       B       B       0.000000 181.000000
      49 loop    25         P       P       P       0.000000 121.000000
      50 loop    25         B       B       B       0.000000 181.000000
      51 loop    26         P       P       P       0.000000 121.000000
      52 loop    26         B       B       B       0.000000 181.000000
      53 loop    27         P       P       P       0.000000 121.000000
      54 loop    27         B       B       B       0.000000 181.000000
      55 loop    28         P       P       P       0.000000 121.000000
      56 loop    28         B       B       B       0.000000 181.000000
      57 loop    29         P       P       P       0.000000 121.000000
      58 loop    29         B       B       B       0.000000 181.000000
      59 loop    30         P       P       P       0.000000 121.000000
      60 loop    30         B       B       B       0.000000 181.000000
      61 loop    31         P       P       P       0.000000 121.000000
      62 loop    31         B       B       B       0.000000 181.000000
      63 loop    32         P       P       P       0.000000 121.000000
      64 loop    32         B       B       B       0.000000 181.000000
      65 loop    33         P       P       P       0.000000 121.000000
      66 loop    33         B       B       B       0.000000 181.000000
      67 loop    34         P       P       P       0.000000 121.000000
      68 loop    34         B       B       B       0.000000 181.000000
      69 loop    35         P       P       P       0.000000 121.000000
      70 loop    35         B       B       B       0.000000 181.000000
      71 loop    36         P       P       P       0.000000 121.000000
      72 loop    36         B       B       B       0.000000 181.000000
      73 loop    37         P       P       P       0.000000 121.000000
      74 loop    37         B       B       B       0.000000 181.000000
      75 loop    38         P       P       P       0.000000 121.000000
      76 loop    38         B       B       B       0.000000 181.000000
      77 loop    39         P       P       P       0.000000 121.000000
      78 loop    39         B       B       B       0.000000 181.000000
      79 loop    40         P       P       P       0.000000 121.000000
      80 loop    40         B       B       B       0.000000 181.000000
      81 loop    41         P       P       P       0.000000 121.000000
      82 loop    41         B       B       B       0.000000 181.000000
      83 loop    42         P       P       P       0.000000 121.000000
      84 loop    42         B       B       B       0.000000 181.000000
      85 loop    43         P       P       P       0.000000 121.000000
      86 loop    43         B       B       B       0.000000 181.000000
      87 loop    44         P       P       P       0.000000 121.000000
      88 loop    44         B       B       B       0.000000 181.000000
      89 loop    45         P       P       P       0.000000 121.000000
      90 loop    45         B       B       B       0.000000 181.000000
      91 loop    46         P       P       P       0.000000 121.000000
      92 loop    46         B       B       B       0.000000 181.000000
      93 loop    47         P       P       P       0.000000 121.000000
      94 loop    47         B       B       B       0.000000 181.000000
      95 loop    48         P       P       P       0.000000 121.000000
      96 loop    48         B       B       B       0.000000 181.000000
      97 loop    49         P       P       P       0.000000 121.000000
      98 loop    49         B       B       B       0.000000 181.000000
      99 loop    50         P       P       P       0.000000 121.000000
     100 loop    50         B       B       B       0.000000 181.000000
     101 loop    51         P       P       P       0.000000 121.000000
     102 loop    51         B       B       B       0.000000 181.000000
     103 loop    52         P       P       P       0.000000 121.000000
     104 loop    52         B       B       B       0.000000 181.000000
     105 loop    53         P       P       P       0.000000 121.000000
     106 loop    53         B       B       B       0.000000 181.000000
     107 loop    54         P       P       P       0.000000 121.000000
     108 loop    54         B       B       B       0.000000 181.000000
     109 loop    55         P       P       P       0.000000 121.000000
     110 loop    55         B       B       B       0.000000 181.000000
     111 loop    56         P       P       P       0.000000 121.000000
     112 loop    56         B       B       B       0.000000 181.000000
     113 loop    57         P       P       P       0.000000 121.000000
     114 loop    57         B       B       B       0.000000 181.000000
     115 loop    58         P       P       P       0.000000 121.000000
     116 loop    58         B       B       B       0.000000 181.000000
     117 loop    59         P       P       P       0.000000 121.000000
     118 loop    59         B       B       B       0.000000 181.000000
     119 loop    60         P       P       P       0.000000 121.000000
     120 loop    60         B       B       B       0.000000 181.000000
     121 loop    61         P       P       P       0.000000 121.000000
     122 loop    61         B       B       B       0.000000 181.000000
     123 loop    62         P       P       P       0.000000 121.000000
     124 loop    62         B       B       B       0.000000 181.000000
     125 loop    63         P       P       P       0.000000 121.000000
     126 loop    63         B       B       B       0.000000 181.000000
     127 loop    64         P       P       P       0.000000 121.000000
     128 loop    64         B       B       B       0.000000 181.000000
     129 loop    65         P       P       P       0.000000 121.000000
     130 loop    65         B       B       B       0.000000 181.000000
     131 loop    66         P       P       P       0.000000 121.000000
     132 loop    66         B       B       B       0.000000 181.000000
     133 loop    67         P       P       P       0.000000 121.000000
     134 loop    67         B       B       B       0.000000 181.000000
     135 loop    68         P       P       P       0.000000 121.000000
     136 loop    68         B       B       B       0.000000 181.000000
     137 loop    69         P       P       P       0.000000 121.000000
     138 loop    69         B       B       B       0.000000 181.000000
     139 loop    70         P       P       P       0.000000 121.000000
     140 loop    70         B       B       B       0.000000 181.000000
     141 loop    71         P       P       P       0.000000 121.000000
     142 loop    71         B       B       B       0.000000 181.000000
     143 loop    72         P       P       P       0.000000 121.000000
     144 loop    72         B       B       B       0.000000 181.000000
     145 loop    73         P       P       P       0.000000 121.000000
     146 loop    73         B       B       B       0.000000 181.000000
     147 loop    74         P       P       P       0.000000 121.000000
     148 loop    74         B       B       B       0.000000 181.000000
     149 loop    75         P       P       P       0.000000 121.000000
     150 loop    75         B       B       B       0.000000 181.000000
     151 loop    76         P       P       P       0.000000 121.000000
     152 loop    76         B       B       B       0.000000 181.000000
     153 loop    77         P       P       P       0.000000 121.000000
     154 loop    77         B       B       B       0.000000 181.000000
     155 loop    78         P       P       P       0.000000 121.000000
     156 loop    78         B       B       B       0.000000 181.000000
     157 loop    79         P       P       P       0.000000 121.000000
     158 loop    79         B       B       B       0.000000 181.000000
     159 loop    80         P       P       P       0.000000 121.000000
     160 loop    80         B       B       B       0.000000 181.000000
     161 loop    81         P       P       P       0.000000 121.000000
     162 loop    81         B       B       B       0.000000 181.000000
     163 loop    82         P       P       P       0.000000 121.000000
     164 loop    82         B       B       B       0.000000 181.000000
     165 loop    83         P       P       P       0.000000 121.000000
     166 loop    83         B       B       B       0.000000 181.000000
     167 loop    84         P       P       P       0.000000 121.000000
     168 loop    84         B       B       B       0.000000 181.000000
     169 loop    85         P       P       P       0.000000 121.000000
     170 loop    85         B       B       B       0.000000 181.000000
     171 loop    86         P       P       P       0.000000 121.000000
     172 loop    86         B       B       B       0.000000 181.000000
     173 loop    87         P       P       P       0.000000 121.000000
     174 loop    87         B       B       B       0.000000 181.000000
     175 loop    88         P       P       P       0.000000 121.000000
     176 loop    88         B       B       B       0.000000 181.000000
     177 loop    89         P       P       P       0.000000 121.000000
     178 loop    89         B       B       B       0.000000 181.000000
     179 loop    90         P       P       P       0.000000 121.000000
     180 loop    90         B       B       B       0.000000 181.000000
     181 loop    91         P       P       P       0.000000 121.000000
     182 loop    91         B       B       B       0.000000 181.000000
     183 loop    92         P       P       P       0.000000 121.000000
     184 loop    92         B       B       B       0.000000 181.000000
     185 loop    93         P       P       P       0.000000 121.000000
     186 loop    93         B       B       B       0.000000 181.000000
     187 loop    94         P       P       P       0.000000 121.000000
     188 loop    94         B       B       B       0.000000 181.000000
     189 loop    95         P       P       P       0.000000 121.000000
     190 loop    95         B       B       B       0.000000 181.000000
     191 loop    96         P       P       P       0.000000 121.000000
     192 loop    96         B       B       B       0.000000 181.000000
     193 loop    97         P       P       P       0.000000 121.000000
     194 loop    97         B       B       B       0.000000 181.000000
     195 loop    98         P       P       P       0.000000 121.000000
     196 loop    98         B       B       B       0.000000 181.000000
     197 loop    99         P       P       P       0.000000 121.000000
     198 loop    99         B       B       B       0.000000 181.000000
     199 loop    100        P       P       P       0.000000 121.000000
     200 loop    100        B       B       B       0.000000 181.000000
     201 loop    101        P       P       P       0.000000 121.000000
     202 loop    101        B       B       B       0.000000 181.000000
     203 loop    102        P       P       P       0.000000 121.000000
     204 loop    102        B       B       B       0.000000 181.000000
     205 loop    103        P       P       P       0.000000 121.000000
     206 loop    103        B       B       B       0.000000 181.000000
     207 loop    104        P       P       P       0.000000 121.000000
     208 loop    104        B       B       B       0.000000 181.000000
     209 loop    105        P       P       P       0.000000 121.000000
     210 loop    105        B       B       B       0.000000 181.000000
     211 loop    106        P       P       P       0.000000 121.000000
     212 loop    106        B       B       B       0.000000 181.000000
     213 loop    107        P       P       P       0.000000 121.000000
     214 loop    107        B       B       B       0.000000 181.000000
     215 loop    108        P       P       P       0.000000 121.000000
     216 loop    108        B       B       B       0.000000 181.000000
     217 loop    109        P       P       P       0.000000 121.000000
     218 loop    109        B       B       B       0.000000 181.000000
     219 loop    110        P       P       P       0.000000 121.000000
     220 loop    110        B       B       B       0.000000 181.000000
     221 loop    111        P       P       P       0.000000 121.000000
     222 loop    111        B       B       B       0.000000 181.000000
     223 loop    112        P       P       P       0.000000 121.000000
     224 loop    112        B       B       B       0.000000 181.000000
     225 loop    113        P       P       P       0.000000 121.000000
     226 loop    113        B       B       B       0.000000 181.000000
     227 loop    114        P       P       P       0.000000 121.000000
     228 loop    114        B       B       B       0.000000 181.000000
     229 loop    115        P       P       P       0.000000 121.000000
     230 loop    115        B       B       B       0.000000 181.000000
     231 loop    116        P       P       P       0.000000 121.000000
     232 loop    116        B       B       B       0.000000 181.000000
     233 loop    117        P       P       P       0.000000 121.000000
     234 loop    117        B       B       B       0.000000 181.000000
     235 loop    118        P       P       P       0.000000 121.000000
     236 loop    118        B       B       B       0.000000 181.000000
     237 loop    119        P       P       P       0.000000 121.000000
     238 loop    119        B       B       B       0.000000 181.000000
     239 loop    120        P       P       P       0.000000 121.000000
     240 loop    120        B       B       B       0.000000 181.000000
     241 loop    121        P       P       P       0.000000 121.000000
     242 loop    121        B       B       B       0.000000 181.000000
     243 loop    122        P       P       P       0.000000 121.000000
     244 loop    122        B       B       B       0.000000 181.000000
     245 loop    123        P       P       P       0.000000 121.000000
     246 loop    123        B       B       B       0.000000 181.000000
     247 loop    124        P       P       P       0.000000 121.000000
     248 loop    124        B       B       B       0.000000 181.000000
     249 loop    125        P       P       P       0.000000 121.000000
     250 loop    125        B       B       B       0.000000 181.000000
     251 loop    126        P       P       P       0.000000 121.000000
     252 loop    126        B       B       B       0.000000 181.000000
     253 loop    127        P       P       P       0.000000 121.000000
     254 loop    127        B       B       B       0.000000 181.000000
     255 loop    128        P       P       P       0.000000 121.000000
     256 loop    128        B       B       B       0.000000 181.000000
     257 loop    129        P       P       P       0.000000 121.000000
     258 loop    129        B       B       B       0.000000 181.000000
     259 loop    130        P       P       P       0.000000 121.000000
     260 loop    130        B       B       B       0.000000 181.000000
     261 loop    131        P       P       P       0.000000 121.000000
     262 loop    131        B       B       B       0.000000 181.000000
     263 loop    132        P       P       P       0.000000 121.000000
     264 loop    132        B       B       B       0.000000 181.000000
     265 loop    133        P       P       P       0.000000 121.000000
     266 loop    133        B       B       B       0.000000 181.000000
     267 loop    134        P       P       P       0.000000 121.000000
     268 loop    134        B       B       B       0.000000 181.000000
     269 loop    135        P       P       P       0.000000 121.000000
     270 loop    135        B       B       B       0.000000 181.000000
     271 loop    136        P       P       P       0.000000 121.000000
     272 loop    136        B       B       B       0.000000 181.000000
     273 loop    137        P       P       P       0.000000 121.000000
     274 loop    137        B       B       B       0.000000 181.000000
     275 loop    138        P       P       P       0.000000 121.000000
     276 loop    138        B       B       B       0.000000 181.000000
     277 loop    139        P       P       P       0.000000 121.000000
     278 loop    139        B       B       B       0.000000 181.000000
     279 loop    140        P       P       P       0.000000 121.000000
     280 loop    140        B       B       B       0.000000 181.000000
     281 loop    141        P       P       P       0.000000 121.000000
     282 loop    141        B       B       B       0.000000 181.000000
     283 loop    142        P       P       P       0.000000 121.000000
     284 loop    142        B       B       B       0.000000 181.000000
     285 loop    143        P       P       P       0.000000 121.000000
     286 loop    143        B       B       B       0.000000 181.000000
     287 loop    144        P       P       P       0.000000 121.000000
     288 loop    144        B       B       B       0.000000 181.000000
     289 loop    145        P       P       P       0.000000 121.000000
     290 loop    145        B       B       B       0.000000 181.000000
     291 loop    146        P       P       P       0.000000 121.000000
     292 loop    146        B       B       B       0.000000 181.000000
     293 loop    147        P       P       P       0.000000 121.000000
     294 loop    147        B       B       B       0.000000 181.000000
     295 loop    148        P       P       P       0.000000 121.000000
     296 loop    148        B       B       B       0.000000 181.000000
     297 loop    149        P       P       P       0.000000 121.000000
     298 loop    149        B       B       B       0.000000 181.000000
     299 loop    150        P       P       P       0.000000 121.000000
     300 loop    150        B       B       B       0.000000 181.000000
     301 loop    151        P       P       P       0.000000 121.000000
     302 loop    151        B       B       B       0.000000 181.000000
     303 loop    152        P       P       P       0.000000 121.000000
     304 loop    152        B       B       B       0.000000 181.000000
     305 loop    153        P       P       P       0.000000 121.000000
     306 loop    153        B       B       B       0.000000 181.000000
     307 loop    154        P       P       P       0.000000 121.000000
     308 loop    154        B       B       B       0.000000 181.000000
     309 loop    155        P       P       P       0.000000 121.000000
     310 loop    155        B       B       B       0.000000 181.000000
     311 loop    156        P       P       P       0.000000 121.000000
     312 loop    156        B       B       B       0.000000 181.000000
     313 loop    157        P       P       P       0.000000 121.000000
     314 loop    157        B       B       B       0.000000 181.000000
     315 loop    158        P       P       P       0.000000 121.000000
     316 loop    158        B       B       B       0.000000 181.000000
     317 loop    159        P       P       P       0.000000 121.000000
     318 loop    159        B       B       B       0.000000 181.000000
     319 loop    160        P       P       P       0.000000 121.000000
     320 loop    160        B       B       B       0.000000 181.000000
     321 loop    161        P       P       P       0.000000 121.000000
     322 loop    161        B       B       B       0.000000 181.000000
     323 loop    162        P       P       P       0.000000 121.000000
     324 loop    162        B       B       B       0.000000 181.000000
     325 loop    163        P       P       P       0.000000 121.000000
     326 loop    163        B       B       B       0.000000 181.000000
     327 loop    164        P       P       P       0.000000 121.000000
     328 loop    164        B       B       B       0.000000 181.000000
     329 loop    165        P       P       P       0.000000 121.000000
     330 loop    165        B       B       B       0.000000 181.000000
     331 loop    166        P       P       P       0.000000 121.000000
     332 loop    166        B       B       B       0.000000 181.000000
     333 loop    167        P       P       P       0.000000 121.000000
     334 loop    167        B       B       B       0.000000 181.000000
     335 loop    168        P       P       P       0.000000 121.000000
     336 loop    168        B       B       B       0.000000 181.000000
     337 loop    169        P       P       P       0.000000 121.000000
     338 loop    169        B       B       B       0.000000 181.000000
     339 loop    170        P       P       P       0.000000 121.000000
     340 loop    170        B       B       B       0.000000 181.000000
     341 loop    171        P       P       P       0.000000 121.000000
     342 loop    171        B       B       B       0.000000 181.000000
     343 loop    172        P       P       P       0.000000 121.000000
     344 loop    172        B       B       B       0.000000 181.000000
     345 loop    173        P       P       P       0.000000 121.000000
     346 loop    173        B       B       B       0.000000 181.000000
     347 loop    174        P       P       P       0.000000 121.000000
     348 loop    174        B       B       B       0.000000 181.000000
     349 loop    175        P       P       P       0.000000 121.000000
     350 loop    175        B       B       B       0.000000 181.000000
     351 loop    176        P       P       P       0.000000 121.000000
     352 loop    176        B       B       B       0.000000 181.000000
     353 loop    177        P       P       P       0.000000 121.000000
     354 loop    177        B       B       B       0.000000 181.000000
     355 loop    178        P       P       P       0.000000 121.000000
     356 loop    178        B       B       B       0.000000 181.000000
     357 loop    179        P       P       P       0.000000 121.000000
     358 loop    179        B       B       B       0.000000 181.000000
     359 loop    180        P       P       P       0.000000 121.000000
     360 loop    180        B       B       B       0.000000 181.000000
     361 loop    181        P       P       P       0.000000 121.000000
     362 loop    181        B       B       B       0.000000 181.000000
     363 loop    182        P       P       P       0.000000 121.000000
     364 loop    182        B       B       B       0.000000 181.000000
     365 loop    183        P       P       P       0.000000 121.000000
     366 loop    183        B       B       B       0.000000 181.000000
     367 loop    184        P       P       P       0.000000 121.000000
     368 loop    184        B       B       B       0.000000 181.000000
     369 loop    185        P       P       P       0.000000 121.000000
     370 loop    185        B       B       B       0.000000 181.000000
     371 loop    186        P       P       P       0.000000 121.000000
     372 loop    186        B       B       B       0.000000 181.000000
     373 loop    187        P       P       P       0.000000 121.000000
     374 loop    187        B       B       B       0.000000 181.000000
     375 loop    188        P       P       P       0.000000 121.000000
     376 loop    188        B       B       B       0.000000 181.000000
     377 loop    189        P       P       P       0.000000 121.000000
     378 loop    189        B       B       B       0.000000 181.000000
     379 loop    190        P       P       P       0.000000 121.000000
     380 loop    190        B       B       B       0.000000 181.000000
     381 loop    191        P       P       P       0.000000 121.000000
     382 loop    191        B       B       B       0.000000 181.000000
     383 loop    192        P       P       P       0.000000 121.000000
     384 loop    192        B       B       B       0.000000 181.000000
     385 loop    193        P       P       P       0.000000 121.000000
     386 loop    193        B       B       B       0.000000 181.000000
     387 loop    194        P       P       P       0.000000 121.000000
     388 loop    194        B       B       B       0.000000 181.000000
     389 loop    195        P       P       P       0.000000 121.000000
     390 loop    195        B       B       B       0.000000 181.000000
     391 loop    196        P       P       P       0.000000 121.000000
     392 loop    196        B       B       B       0.000000 181.000000
     393 loop    197        P       P       P       0.000000 121.000000
     394 loop    197        B       B       B       0.000000 181.000000
     395 loop    198        P       P       P       0.000000 121.000000
     396 loop    198        B       B       B       0.000000 181.000000
     397 loop    199        P       P       P       0.000000 121.000000
     398 loop    199        B       B       B       0.000000 181.000000
     399 loop    200        P       P       P       0.000000 121.000000
     400 loop    200        B       B       B       0.000000 181.000000
     401 loop    201        P       P       P       0.000000 121.000000
     402 loop    201        B       B       B       0.000000 181.000000
     403 loop    202        P       P       P       0.000000 121.000000
     404 loop    202        B       B       B       0.000000 181.000000
     405 loop    203        P       P       P       0.000000 121.000000
     406 loop    203        B       B       B       0.000000 181.000000
     407 loop    204        P       P       P       0.000000 121.000000
     408 loop    204        B       B       B       0.000000 181.000000
     409 loop    205        P       P       P       0.000000 121.000000
     410 loop    205        B       B       B       0.000000 181.000000
     411 loop    206        P       P       P       0.000000 121.000000
     412 loop    206        B       B       B       0.000000 181.000000
     413 loop    207        P       P       P       0.000000 121.000000
     414 loop    207        B       B       B       0.000000 181.000000
     415 loop    208        P       P       P       0.000000 121.000000
     416 loop    208        B       B       B       0.000000 181.000000
     417 loop    209        P       P       P       0.000000 121.000000
     418 loop    209        B       B       B       0.000000 181.000000
     419 loop    210        P       P       P       0.000000 121.000000
     420 loop    210        B       B       B       0.000000 181.000000
     421 loop    211        P       P       P       0.000000 121.000000
     422 loop    211        B       B       B       0.000000 181.000000
     423 loop    212        P       P       P       0.000000 121.000000
     424 loop    212        B       B       B       0.000000 181.000000
     425 loop    213        P       P       P       0.000000 121.000000
     426 loop    213        B       B       B       0.000000 181.000000
     427 loop    214        P       P       P       0.000000 121.000000
     428 loop    214        B       B       B       0.000000 181.000000
     429 loop    215        P       P       P       0.000000 121.000000
     430 loop    215        B       B       B       0.000000 181.000000
     431 loop    216        P       P       P       0.000000 121.000000
     432 loop    216        B       B       B       0.000000 181.000000
     433 loop    217        P       P       P       0.000000 121.000000
     434 loop    217        B       B       B       0.000000 181.000000
     435 loop    218        P       P       P       0.000000 121.000000
     436 loop    218        B       B       B       0.000000 181.000000
     437 loop    219        P       P       P       0.000000 121.000000
     438 loop    219        B       B       B       0.000000 181.000000
     439 loop    220        P       P       P       0.000000 121.000000
     440 loop    220        B       B       B       0.000000 181.000000
     441 loop    221        P       P       P       0.000000 121.000000
     442 loop    221        B       B       B       0.000000 181.000000
     443 loop    222        P       P       P       0.000000 121.000000
     444 loop    222        B       B       B       0.000000 181.000000
     445 loop    223        P       P       P       0.000000 121.000000
     446 loop    223        B       B       B       0.000000 181.000000
     447 loop    224        P       P       P       0.000000 121.000000
     448 loop    224        B       B       B       0.000000 181.000000
     449 loop    225        P       P       P       0.000000 121.000000
     450 loop    225        B       B       B       0.000000 181.000000
     451 loop    226        P       P       P       0.000000 121.000000
     452 loop    226        B       B       B       0.000000 181.000000
     453 loop    227        P       P       P       0.000000 121.000000
     454 loop    227        B       B       B       0.000000 181.000000
     455 loop    228        P       P       P       0.000000 121.000000
     456 loop    228        B       B       B       0.000000 181.000000
     457 loop    229        P       P       P       0.000000 121.000000
     458 loop    229        B       B       B       0.000000 181.000000
     459 loop    230        P       P       P       0.000000 121.000000
     460 loop    230        B       B       B       0.000000 181.000000
     461 loop    231        P       P       P       0.000000 121.000000
     462 loop    231        B       B       B       0.000000 181.000000
     463 loop    232        P       P       P       0.000000 121.000000
     464 loop    232        B       B       B       0.000000 181.000000
     465 loop    233        P       P       P       0.000000 121.000000
     466 loop    233        B       B       B       0.000000 181.000000
     467 loop    234        P       P       P       0.000000 121.000000
     468 loop    234        B       B       B       0.000000 181.000000
     469 loop    235        P       P       P       0.000000 121.000000
     470 loop    235        B       B       B       0.000000 181.000000
     471 loop    236        P       P       P       0.000000 121.000000
     472 loop    236        B       B       B       0.000000 181.000000
     473 loop    237        P       P       P       0.000000 121.000000
     474 loop    237        B       B       B       0.000000 181.000000
     475 loop    238        P       P       P       0.000000 121.000000
     476 loop    238        B       B       B       0.000000 181.000000
     477 loop    239        P       P       P       0.000000 121.000000
     478 loop    239        B       B       B       0.000000 181.000000
     479 loop    240        P       P       P       0.000000 121.000000
     480 loop    240        B       B       B       0.000000 181.000000
     481 loop    241        P       P       P       0.000000 121.000000
     482 loop    241        B       B       B       0.000000 181.000000
     483 loop    242        P       P       P       0.000000 121.000000
     484 loop    242        B       B       B       0.000000 181.000000
     485 loop    243        P       P       P       0.000000 121.000000
     486 loop    243        B       B       B       0.000000 181.000000
     487 loop    244        P       P       P       0.000000 121.000000
     488 loop    244        B       B       B       0.000000 181.000000
     489 loop    245        P       P       P       0.000000 121.000000
     490 loop    245        B       B       B       0.000000 181.000000
     491 loop    246        P       P       P       0.000000 121.000000
     492 loop    246        B       B       B       0.000000 181.000000
     493 loop    247        P       P       P       0.000000 121.000000
     494 loop    247        B       B       B       0.000000 181.000000
     495 loop    248        P       P       P       0.000000 121.000000
     496 loop    248        B       B       B       0.000000 181.000000
     497 loop    249        P       P       P       0.000000 121.000000
     498 loop    249        B       B       B       0.000000 181.000000
     499 loop    250        P       P       P       0.000000 121.000000
     500 loop    250        B       B       B       0.000000 181.000000
     501 loop    251        P       P       P       0.000000 121.000000
     502 loop    251        B       B       B       0.000000 181.000000
     503 loop    252        P       P       P       0.000000 121.000000
     504 loop    252        B       B       B       0.000000 181.000000
     505 loop    253        P       P       P       0.000000 121.000000
     506 loop    253        B       B       B       0.000000 181.000000
     507 loop    254        P       P       P       0.000000 121.000000
     508 loop    254        B       B       B       0.000000 181.000000
     509 loop    255        P       P       P       0.000000 121.000000
     510 loop    255        B       B       B       0.000000 181.000000
     511 loop    256        P       P       P       0.000000 121.000000
     512 loop    256        B       B       B       0.000000 181.000000
     513 loop    257        P       P       P       0.000000 121.000000
     514 loop    257        B       B       B       0.000000 181.000000
     515 loop    258        P       P       P       0.000000 121.000000
     516 loop    258        B       B       B       0.000000 181.000000
     517 loop    259        P       P       P       0.000000 121.000000
     518 loop    259        B       B       B       0.000000 181.000000
     519 loop    260        P       P       P       0.000000 121.000000
     520 loop    260        B       B       B       0.000000 181.000000
     521 loop    261        P       P       P       0.000000 121.000000
     522 loop    261        B       B       B       0.000000 181.000000
     523 loop    262        P       P       P       0.000000 121.000000
     524 loop    262        B       B       B       0.000000 181.000000
     525 loop    263        P       P       P       0.000000 121.000000
     526 loop    263        B       B       B       0.000000 181.000000
     527 loop    264        P       P       P       0.000000 121.000000
     528 loop    264        B       B       B       0.000000 181.000000
     529 loop    265        P       P       P       0.000000 121.000000
     530 loop    265        B       B       B       0.000000 181.000000
     531 loop    266        P       P       P       0.000000 121.000000
     532 loop    266        B       B       B       0.000000 181.000000
     533 loop    267        P       P       P       0.000000 121.000000
     534 loop    267        B       B       B       0.000000 181.000000
     535 loop    268        P       P       P       0.000000 121.000000
     536 loop    268        B       B       B       0.000000 181.000000
     537 loop    269        P       P       P       0.000000 121.000000
     538 loop    269        B       B       B       0.000000 181.000000
     539 loop    270        P       P       P       0.000000 121.000000
     540 loop    270        B       B       B       0.000000 181.000000
     541 loop    271        P       P       P       0.000000 121.000000
     542 loop    271        B       B       B       0.000000 181.000000
     543 loop    272        P       P       P       0.000000 121.000000
     544 loop    272        B       B       B       0.000000 181.000000
     545 loop    273        P       P       P       0.000000 121.000000
     546 loop    273        B       B       B       0.000000 181.000000
     547 loop    274        P       P       P       0.000000 121.000000
     548 loop    274        B       B       B       0.000000 181.000000
     549 loop    275        P       P       P       0.000000 121.000000
     550 loop    275        B       B       B       0.000000 181.000000
     551 loop    276        P       P       P       0.000000 121.000000
     552 loop    276        B       B       B       0.000000 181.000000
     553 loop    277        P       P       P       0.000000 121.000000
     554 loop    277        B       B       B       0.000000 181.000000
     555 loop    278        P       P       P       0.000000 121.000000
     556 loop    278        B       B       B       0.000000 181.000000
     557 loop    279        P       P       P       0.000000 121.000000
     558 loop    279        B       B       B       0.000000 181.000000
     559 loop    280        P       P       P       0.000000 121.000000
     560 loop    280        B       B       B       0.000000 181.000000
     561 loop    281        P       P       P       0.000000 121.000000
     562 loop    281        B       B       B       0.000000 181.000000
     563 loop    282        P       P       P       0.000000 121.000000
     564 loop    282        B       B       B       0.000000 181.000000
     565 loop    283        P       P       P       0.000000 121.000000
     566 loop    283        B       B       B       0.000000 181.000000
     567 loop    284        P       P       P       0.000000 121.000000
     568 loop    284        B       B       B       0.000000 181.000000
     569 loop    285        P       P       P       0.000000 121.000000
     570 loop    285        B       B       B       0.000000 181.000000
     571 loop    286        P       P       P       0.000000 121.000000
     572 loop    286        B       B       B       0.000000 181.000000
     573 loop    287        P       P       P       0.000000 121.000000
     574 loop    287        B       B       B       0.000000 181.000000
     575 loop    288        P       P       P       0.000000 121.000000
     576 loop    288        B       B       B       0.000000 181.000000
     577 loop    289        P       P       P       0.000000 121.000000
     578 loop    289        B       B       B       0.000000 181.000000
     579 loop    290        P       P       P       0.000000 121.000000
     580 loop    290        B       B       B       0.000000 181.000000
     581 loop    291        P       P       P       0.000000 121.000000
     582 loop    291        B       B       B       0.000000 181.000000
     583 loop    292        P       P       P       0.000000 121.000000
     584 loop    292        B       B       B       0.000000 181.000000
     585 loop    293        P       P       P       0.000000 121.000000
     586 loop    293        B       B       B       0.000000 181.000000
     587 loop    294        P       P       P       0.000000 121.000000
     588 loop    294        B       B       B       0.000000 181.000000
     589 loop    295        P       P       P       0.000000 121.000000
     590 loop    295        B       B       B       0.000000 181.000000
     591 loop    296        P       P       P       0.000000 121.000000
     592 loop    296        B       B       B       0.000000 181.000000
     593 loop    297        P       P       P       0.000000 121.000000
     594 loop    297        B       B       B       0.000000 181.000000
     595 loop    298        P       P       P       0.000000 121.000000
     596 loop    298        B       B       B       0.000000 181.000000
     597 loop    299        P       P       P       0.000000 121.000000
     598 loop    299        B       B       B       0.000000 181.000000
     599 loop    300        P       P       P       0.000000 121.000000
     600 loop    300        B       B       B       0.000000 181.000000
     601 loop    301        P       P       P       0.000000 121.000000
     602 loop    301        B       B       B       0.000000 181.000000
     603 loop    302        P       P       P       0.000000 121.000000
     604 loop    302        B       B       B       0.000000 181.000000
     605 loop    303        P       P       P       0.000000 121.000000
     606 loop    303        B       B       B       0.000000 181.000000
     607 loop    304        P       P       P       0.000000 121.000000
     608 loop    304        B       B       B       0.000000 181.000000
     609 loop    305        P       P       P       0.000000 121.000000
     610 loop    305        B       B       B       0.000000 181.000000
     611 loop    306        P       P       P       0.000000 121.000000
     612 loop    306        B       B       B       0.000000 181.000000
     613 loop    307        P       P       P       0.000000 121.000000
     614 loop    307        B       B       B       0.000000 181.000000
     615 loop    308        P       P       P       0.000000 121.000000
     616 loop    308        B       B       B       0.000000 181.000000
     617 loop    309        P       P       P       0.000000 121.000000
     618 loop    309        B       B       B       0.000000 181.000000
     619 loop    310        P       P       P       0.000000 121.000000
     620 loop    310        B       B       B       0.000000 181.000000
     621 loop    311        P       P       P       0.000000 121.000000
     622 loop    311        B       B       B       0.000000 181.000000
     623 loop    312        P       P       P       0.000000 121.000000
     624 loop    312        B       B       B       0.000000 181.000000
     625 loop    313        P       P       P       0.000000 121.000000
     626 loop    313        B       B       B       0.000000 181.000000
     627 loop    314        P       P       P       0.000000 121.000000
     628 loop    314        B       B       B       0.000000 181.000000
     629 loop    315        P       P       P       0.000000 121.000000
     630 loop    315        B       B       B       0.000000 181.000000
     631 loop    316        P       P       P       0.000000 121.000000
     632 loop    316        B       B       B       0.000000 181.000000
     633 loop    317        P       P       P       0.000000 121.000000
     634 loop    317        B       B       B       0.000000 181.000000
     635 loop    318        P       P       P       0.000000 121.000000
     636 loop    318        B       B       B       0.000000 181.000000
     637 loop    319        P       P       P       0.000000 121.000000
     638 loop    319        B       B       B       0.000000 181.000000
     639 loop    320        P       P       P       0.000000 121.000000
     640 loop    320        B       B       B       0.000000 181.000000
     641 loop    321        P       P       P       0.000000 121.000000
     642 loop    321        B       B       B       0.000000 181.000000
     643 loop    322        P       P       P       0.000000 121.000000
     644 loop    322        B       B       B       0.000000 181.000000
     645 loop    323        P       P       P       0.000000 121.000000
     646 loop    323        B       B       B       0.000000 181.000000
     647 loop    324        P       P       P       0.000000 121.000000
     648 loop    324        B       B       B       0.000000 181.000000
     649 loop    325        P       P       P       0.000000 121.000000
     650 loop    325        B       B       B       0.000000 181.000000
     651 loop    326        P       P       P       0.000000 121.000000
     652 loop    326        B       B       B       0.000000 181.000000
     653 loop    327        P       P       P       0.000000 121.000000
     654 loop    327        B       B       B       0.000000 181.000000
     655 loop    328        P       P       P       0.000000 121.000000
     656 loop    328        B       B       B       0.000000 181.000000
     657 loop    329        P       P       P       0.000000 121.000000
     658 loop    329        B       B       B       0.000000 181.000000
     659 loop    330        P       P       P       0.000000 121.000000
     660 loop    330        B       B       B       0.000000 181.000000
     661 loop    331        P       P       P       0.000000 121.000000
     662 loop    331        B       B       B       0.000000 181.000000
     663 loop    332        P       P       P       0.000000 121.000000
     664 loop    332        B       B       B       0.000000 181.000000
     665 loop    333        P       P       P       0.000000 121.000000
     666 loop    333        B       B       B       0.000000 181.000000
     667 loop    334        P       P       P       0.000000 121.000000
     668 loop    334        B       B       B       0.000000 181.000000
     669 loop    335        P       P       P       0.000000 121.000000
     670 loop    335        B       B       B       0.000000 181.000000
     671 loop    336        P       P       P       0.000000 121.000000
     672 loop    336        B       B       B       0.000000 181.000000
     673 loop    337        P       P       P       0.000000 121.000000
     674 loop    337        B       B       B       0.000000 181.000000
     675 loop    338        P       P       P       0.000000 121.000000
     676 loop    338        B       B       B       0.000000 181.000000
     677 loop    339        P       P       P       0.000000 121.000000
     678 loop    339        B       B       B       0.000000 181.000000
     679 loop    340        P       P       P       0.000000 121.000000
     680 loop    340        B       B       B       0.000000 181.000000
     681 loop    341        P       P       P       0.000000 121.000000
     682 loop    341        B       B       B       0.000000 181.000000
     683 loop    342        P       P       P       0.000000 121.000000
     684 loop    342        B       B       B       0.000000 181.000000
     685 loop    343        P       P       P       0.000000 121.000000
     686 loop    343        B       B       B       0.000000 181.000000
     687 loop    344        P       P       P       0.000000 121.000000
     688 loop    344        B       B       B       0.000000 181.000000
     689 loop    345        P       P       P       0.000000 121.000000
     690 loop    345        B       B       B       0.000000 181.000000
     691 loop    346        P       P       P       0.000000 121.000000
     692 loop    346        B       B       B       0.000000 181.000000
     693 loop    347        P       P       P       0.000000 121.000000
     694 loop    347        B       B       B       0.000000 181.000000
     695 loop    348        P       P       P       0.000000 121.000000
     696 loop    348        B       B       B       0.000000 181.000000
     697 loop    349        P       P       P       0.000000 121.000000
     698 loop    349        B       B       B       0.000000 181.000000
     699 loop    350        P       P       P       0.000000 121.000000
     700 loop    350        B       B       B       0.000000 181.000000
     701 loop    351        P       P       P       0.000000 121.000000
     702 loop    351        B       B       B       0.000000 181.000000
     703 loop    352        P       P       P       0.000000 121.000000
     704 loop    352        B       B       B       0.000000 181.000000
     705 loop    353        P       P       P       0.000000 121.000000
     706 loop    353        B       B       B       0.000000 181.000000
     707 loop    354        P       P       P       0.000000 121.000000
     708 loop    354        B       B       B       0.000000 181.000000
     709 loop    355        P       P       P       0.000000 121.000000
     710 loop    355        B       B       B       0.000000 181.000000
     711 loop    356        P       P       P       0.000000 121.000000
     712 loop    356        B       B       B       0.000000 181.000000
     713 loop    357        P       P       P       0.000000 121.000000
     714 loop    357        B       B       B       0.000000 181.000000
     715 loop    358        P       P       P       0.000000 121.000000
     716 loop    358        B       B       B       0.000000 181.000000
     717 loop    359        P       P       P       0.000000 121.000000
     718 loop    359        B       B       B       0.000000 181.000000
     719 loop    360        P       P       P       0.000000 121.000000
     720 loop    360        B       B       B       0.000000 181.000000
     721 loop    361        P       P       P       0.000000 121.000000
     722 loop    361        B       B       B       0.000000 181.000000
     723 loop    362        P       P       P       0.000000 121.000000
     724 loop    362        B       B       B       0.000000 181.000000
     725 loop    363        P       P       P       0.000000 121.000000
     726 loop    363        B       B       B       0.000000 181.000000
     727 loop    364        P       P       P       0.000000 121.000000
     728 loop    364        B       B       B       0.000000 181.000000
     729 loop    365        P       P       P       0.000000 121.000000
     730 loop    365        B       B       B       0.000000 181.000000
     731 loop    366        P       P       P       0.000000 121.000000
     732 loop    366        B       B       B       0.000000 181.000000
     733 loop    367        P       P       P       0.000000 121.000000
     734 loop    367        B       B       B       0.000000 181.000000
     735 loop    368        P       P       P       0.000000 121.000000
     736 loop    368        B       B       B       0.000000 181.000000
     737 loop    369        P       P       P       0.000000 121.000000
     738 loop    369        B       B       B       0.000000 181.000000
     739 loop    370        P       P       P       0.000000 121.000000
     740 loop    370        B       B       B       0.000000 181.000000
     741 loop    371        P       P       P       0.000000 121.000000
     742 loop    371        B       B       B       0.000000 181.000000
     743 loop    372        P       P       P       0.000000 121.000000
     744 loop    372        B       B       B       0.000000 181.000000
     745 loop    373        P       P       P       0.000000 121.000000
     746 loop    373        B       B       B       0.000000 181.000000
     747 loop    374        P       P       P       0.000000 121.000000
     748 loop    374        B       B       B       0.000000 181.000000
     749 loop    375        P       P       P       0.000000 121.000000
     750 loop    375        B       B       B       0.000000 181.000000
     751 loop    376        P       P       P       0.000000 121.000000
     752 loop    376        B       B       B       0.000000 181.000000
     753 loop    377        P       P       P       0.000000 121.000000
     754 loop    377        B       B       B       0.000000 181.000000
     755 loop    378        P       P       P       0.000000 121.000000
     756 loop    378        B       B       B       0.000000 181.000000
     757 loop    379        P       P       P       0.000000 121.000000
     758 loop    379        B       B       B       0.000000 181.000000
     759 loop    380        P       P       P       0.000000 121.000000
     760 loop    380        B       B       B       0.000000 181.000000
     761 loop    381        P       P       P       0.000000 121.000000
     762 loop    381        B       B       B       0.000000 181.000000
     763 loop    382        P       P       P       0.000000 121.000000
     764 loop    382        B       B       B       0.000000 181.000000
     765 loop    383        P       P       P       0.000000 121.000000
     766 loop    383        B       B       B       0.000000 181.000000
     767 loop    384        P       P       P       0.000000 121.000000
     768 loop    384        B       B       B       0.000000 181.000000
     769 loop    385        P       P       P       0.000000 121.000000
     770 loop    385        B       B       B       0.000000 181.000000
     771 loop    386        P       P       P       0.000000 121.000000
     772 loop    386        B       B       B       0.000000 181.000000
     773 loop    387        P       P       P       0.000000 121.000000
     774 loop    387        B       B       B       0.000000 181.000000
     775 loop    388        P       P       P       0.000000 121.000000
     776 loop    388        B       B       B       0.000000 181.000000
     777 loop    389        P       P       P       0.000000 121.000000
     778 loop    389        B       B       B       0.000000 181.000000
     779 loop    390        P       P       P       0.000000 121.000000
     780 loop    390        B       B       B       0.000000 181.000000
     781 loop    391        P       P       P       0.000000 121.000000
     782 loop    391        B       B       B       0.000000 181.000000
     783 loop    392        P       P       P       0.000000 121.000000
     784 loop    392        B       B       B       0.000000 181.000000
     785 loop    393        P       P       P       0.000000 121.000000
     786 loop    393        B       B       B       0.000000 181.000000
     787 loop    394        P       P       P       0.000000 121.000000
     788 loop    394        B       B       B       0.000000 181.000000
     789 loop    395        P       P       P       0.000000 121.000000
     790 loop    395        B       B       B       0.000000 181.000000
     791 loop    396        P       P       P       0.000000 121.000000
     792 loop    396        B       B       B       0.000000 181.000000
     793 loop    397        P       P       P       0.000000 121.000000
     794 loop    397        B       B       B       0.000000 181.000000
     795 loop    398        P       P       P       0.000000 121.000000
     796 loop    398        B       B       B       0.000000 181.000000
     797 loop    399        P       P       P       0.000000 121.000000
     798 loop    399        B       B       B       0.000000 181.000000
     799 loop    400        P       P       P       0.000000 121.000000
     800 loop    400        B       B       B       0.000000 181.000000
     801 loop    401        P       P       P       0.000000 121.000000
     802 loop    401        B       B       B       0.000000 181.000000
     803 loop    402        P       P       P       0.000000 121.000000
     804 loop    402        B       B       B       0.000000 181.000000
     805 loop    403        P       P       P       0.000000 121.000000
     806 loop    403        B       B       B       0.000000 181.000000
     807 loop    404        P       P       P       0.000000 121.000000
     808 loop    404        B       B       B       0.000000 181.000000
     809 loop    405        P       P       P       0.000000 121.000000
     810 loop    405        B       B       B       0.000000 181.000000
     811 loop    406        P       P       P       0.000000 121.000000
     812 loop    406        B       B       B       0.000000 181.000000
     813 loop    407        P       P       P       0.000000 121.000000
     814 loop    407        B       B       B       0.000000 181.000000
     815 loop    408        P       P       P       0.000000 121.000000
     816 loop    408        B       B       B       0.000000 181.000000
     817 loop    409        P       P       P       0.000000 121.000000
     818 loop    409        B       B       B       0.000000 181.000000
     819 loop    410        P       P       P       0.000000 121.000000
     820 loop    410        B       B       B       0.000000 181.000000
     821 loop    411        P       P       P       0.000000 121.000000
     822 loop    411        B       B       B       0.000000 181.000000
     823 loop    412        P       P       P       0.000000 121.000000
     824 loop    412        B       B       B       0.000000 181.000000
     825 loop    413        P       P       P       0.000000 121.000000
     826 loop    413        B       B       B       0.000000 181.000000
     827 loop    414        P       P       P       0.000000 121.000000
     828 loop    414        B       B       B       0.000000 181.000000
     829 loop    415        P       P       P       0.000000 121.000000
     830 loop    415        B       B       B       0.000000 181.000000
     831 loop    416        P       P       P       0.000000 121.000000
     832 loop    416        B       B       B       0.000000 181.000000
     833 loop    417        P       P       P       0.000000 121.000000
     834 loop    417        B       B       B       0.000000 181.000000
     835 loop    418        P       P       P       0.000000 121.000000
     836 loop    418        B       B       B       0.000000 181.000000
     837 loop    419        P       P       P       0.000000 121.000000
     838 loop    419        B       B       B       0.000000 181.000000
     839 loop    420        P       P       P       0.000000 121.000000
     840 loop    420        B       B       B       0.000000 181.000000
     841 loop    421        P       P       P       0.000000 121.000000
     842 loop    421        B       B       B       0.000000 181.000000
     843 loop    422        P       P       P       0.000000 121.000000
     844 loop    422        B       B       B       0.000000 181.000000
     845 loop    423        P       P       P       0.000000 121.000000
     846 loop    423        B       B       B       0.000000 181.000000
     847 loop    424        P       P       P       0.000000 121.000000
     848 loop    424        B       B       B       0.000000 181.000000
     849 loop    425        P       P       P       0.000000 121.000000
     850 loop    425        B       B       B       0.000000 181.000000
     851 loop    426        P       P       P       0.000000 121.000000
     852 loop    426        B       B       B       0.000000 181.000000
     853 loop    427        P       P       P       0.000000 121.000000
     854 loop    427        B       B       B       0.000000 181.000000
     855 loop    428        P       P       P       0.000000 121.000000
     856 loop    428        B       B       B       0.000000 181.000000
     857 loop    429        P       P       P       0.000000 121.000000
     858 loop    429        B       B       B       0.000000 181.000000
     859 loop    430        P       P       P       0.000000 121.000000
     860 loop    430        B       B       B       0.000000 181.000000
     861 loop    431        P       P       P       0.000000 121.000000
     862 loop    431        B       B       B       0.000000 181.000000
     863 loop    432        P       P       P       0.000000 121.000000
     864 loop    432        B       B       B       0.000000 181.000000
     865 loop    433        P       P       P       0.000000 121.000000
     866 loop    433        B       B       B       0.000000 181.000000
     867 loop    434        P       P       P       0.000000 121.000000
     868 loop    434        B       B       B       0.000000 181.000000
     869 loop    435        P       P       P       0.000000 121.000000
     870 loop    435        B       B       B       0.000000 181.000000
     871 loop    436        P       P       P       0.000000 121.000000
     872 loop    436        B       B       B       0.000000 181.000000
     873 loop    437        P       P       P       0.000000 121.000000
     874 loop    437        B       B       B       0.000000 181.000000
     875 loop    438        P       P       P       0.000000 121.000000
     876 loop    438        B       B       B       0.000000 181.000000
     877 loop    439        P       P       P       0.000000 121.000000
     878 loop    439        B       B       B       0.000000 181.000000
     879 loop    440        P       P       P       0.000000 121.000000
     880 loop    440        B       B       B       0.000000 181.000000
     881 loop    441        P       P       P       0.000000 121.000000
     882 loop    441        B       B       B       0.000000 181.000000
     883 loop    442        P       P       P       0.000000 121.000000
     884 loop    442        B       B       B       0.000000 181.000000
     885 loop    443        P       P       P       0.000000 121.000000
     886 loop    443        B       B       B       0.000000 181.000000
     887 loop    444        P       P       P       0.000000 121.000000
     888 loop    444        B       B       B       0.000000 181.000000
     889 loop    445        P       P       P       0.000000 121.000000
     890 loop    445        B       B       B       0.000000 181.000000
     891 loop    446        P       P       P       0.000000 121.000000
     892 loop    446        B       B       B       0.000000 181.000000
     893 loop    447        P       P       P       0.000000 121.000000
     894 loop    447        B       B       B       0.000000 181.000000
     895 loop    448        P       P       P       0.000000 121.000000
     896 loop    448        B       B       B       0.000000 181.000000
     897 loop    449        P       P       P       0.000000 121.000000
     898 loop    449        B       B       B       0.000000 181.000000
     899 loop    450        P       P       P       0.000000 121.000000
     900 loop    450        B       B       B       0.000000 181.000000
     901 loop    451        P       P       P       0.000000 121.000000
     902 loop    451        B       B       B       0.000000 181.000000
     903 loop    452        P       P       P       0.000000 121.000000
     904 loop    452        B       B       B       0.000000 181.000000
     905 loop    453        P       P       P       0.000000 121.000000
     906 loop    453        B       B       B       0.000000 181.000000
     907 loop    454        P       P       P       0.000000 121.000000
     908 loop    454        B       B       B       0.000000 181.000000
     909 loop    455        P       P       P       0.000000 121.000000
     910 loop    455        B       B       B       0.000000 181.000000
     911 loop    456        P       P       P       0.000000 121.000000
     912 loop    456        B       B       B       0.000000 181.000000
     913 loop    457        P       P       P       0.000000 121.000000
     914 loop    457        B       B       B       0.000000 181.000000
     915 loop    458        P       P       P       0.000000 121.000000
     916 loop    458        B       B       B       0.000000 181.000000
     917 loop    459        P       P       P       0.000000 121.000000
     918 loop    459        B       B       B       0.000000 181.000000
     919 loop    460        P       P       P       0.000000 121.000000
     920 loop    460        B       B       B       0.000000 181.000000
     921 loop    461        P       P       P       0.000000 121.000000
     922 loop    461        B       B       B       0.000000 181.000000
     923 loop    462        P       P       P       0.000000 121.000000
     924 loop    462        B       B       B       0.000000 181.000000
     925 loop    463        P       P       P       0.000000 121.000000
     926 loop    463        B       B       B       0.000000 181.000000
     927 loop    464        P       P       P       0.000000 121.000000
     928 loop    464        B       B       B       0.000000 181.000000
     929 loop    465        P       P       P       0.000000 121.000000
     930 loop    465        B       B       B       0.000000 181.000000
     931 loop    466        P       P       P       0.000000 121.000000
     932 loop    466        B       B       B       0.000000 181.000000
     933 loop    467        P       P       P       0.000000 121.000000
     934 loop    467        B       B       B       0.000000 181.000000
     935 loop    468        P       P       P       0.000000 121.000000
     936 loop    468        B       B       B       0.000000 181.000000
     937 loop    469        P       P       P       0.000000 121.000000
     938 loop    469        B       B       B       0.000000 181.000000
     939 loop    470        P       P       P       0.000000 121.000000
     940 loop    470        B       B       B       0.000000 181.000000
     941 loop    471        P       P       P       0.000000 121.000000
     942 loop    471        B       B       B       0.000000 181.000000
     943 loop    472        P       P       P       0.000000 121.000000
     944 loop    472        B       B       B       0.000000 181.000000
     945 loop    473        P       P       P       0.000000 121.000000
     946 loop    473        B       B       B       0.000000 181.000000
     947 loop    474        P       P       P       0.000000 121.000000
     948 loop    474        B       B       B       0.000000 181.000000
     949 loop    475        P       P       P       0.000000 121.000000
     950 loop    475        B       B       B       0.000000 181.000000
     951 loop    476        P       P       P       0.000000 121.000000
     952 loop    476        B       B       B       0.000000 181.000000
     953 loop    477        P       P       P       0.000000 121.000000
     954 loop    477        B       B       B       0.000000 181.000000
     955 loop    478        P       P       P       0.000000 121.000000
     956 loop    478        B       B       B       0.000000 181.000000
     957 loop    479        P       P       P       0.000000 121.000000
     958 loop    479        B       B       B       0.000000 181.000000
     959 loop    480        P       P       P       0.000000 121.000000
     960 loop    480        B       B       B       0.000000 181.000000
     961 loop    481        P       P       P       0.000000 121.000000
     962 loop    481        B       B       B       0.000000 181.000000
     963 loop    482        P       P       P       0.000000 121.000000
     964 loop    482        B       B       B       0.000000 181.000000
     965 loop    483        P       P       P       0.000000 121.000000
     966 loop    483        B       B       B       0.000000 181.000000
     967 loop    484        P       P       P       0.000000 121.000000
     968 loop    484        B       B       B       0.000000 181.000000
     969 loop    485        P       P       P       0.000000 121.000000
     970 loop    485        B       B       B       0.000000 181.000000
     971 loop    486        P       P       P       0.000000 121.000000
     972 loop    486        B       B       B       0.000000 181.000000
     973 loop    487        P       P       P       0.000000 121.000000
     974 loop    487        B       B       B       0.000000 181.000000
     975 loop    488        P       P       P       0.000000 121.000000
     976 loop    488        B       B       B       0.000000 181.000000
     977 loop    489        P       P       P       0.000000 121.000000
     978 loop    489        B       B       B       0.000000 181.000000
     979 loop    490        P       P       P       0.000000 121.000000
     980 loop    490        B       B       B       0.000000 181.000000
     981 loop    491        P       P       P       0.000000 121.000000
     982 loop    491        B       B       B       0.000000 181.000000
     983 loop    492        P       P       P       0.000000 121.000000
     984 loop    492        B       B       B       0.000000 181.000000
     985 loop    493        P       P       P       0.000000 121.000000
     986 loop    493        B       B       B       0.000000 181.000000
     987 loop    494        P       P       P       0.000000 121.000000
     988 loop    494        B       B       B       0.000000 181.000000
     989 loop    495        P       P       P       0.000000 121.000000
     990 loop    495        B       B       B       0.000000 181.000000
     991 loop    496        P       P       P       0.000000 121.000000
     992 loop    496        B       B       B       0.000000 181.000000
     993 loop    497        P       P       P       0.000000 121.000000
     994 loop    497        B       B       B       0.000000 181.000000
     995 loop    498        P       P       P       0.000000 121.000000
     996 loop    498        B       B       B       0.000000 181.000000
     997 loop    499        P       P       P       0.000000 121.000000
     998 loop    499        B       B       B       0.000000 181.000000
     999 loop    500        P       P       P       0.000000 121.000000
    1000 loop    500        B       B       B       0.000000 181.000000

    1498 !NBOND
     885     887      384     385      531     532       95      97
     343     345      857     859      854     855      872     873
     301     303      759     761      258     259      298     299
     770     771      453     455      792     793      177     178
     645     647      373     375      345     347       66      67
     491     493      808     809       35      36      245     246
     435     437      900     901      454     455      469     471
     635     637      779     780       48      49      315     317
     407     409      983     984      522     523      427     429
     458     459      275     276      176     177      424     425
     637     638      793     795      961     963      765     767
     411     412      546     547        4       5      587     589
     112     113      874     875       84      85      772     773
     290     291      714     715        5       6      668     669
     375     377      474     475      347     349      824     825
     637     639      815     816      539     540       19      20
     416     417      756     757      706     707      142     143
     863     865      399     401      362     363      583     585
     835     837      265     266      158     159       43      44
     203     205      461     463      839     840        5       7
     577     578      197     198        2       3      252     253
     377     378      150     151      349     350      539     541
     867     869      513     514      691     693      127     129
     167     168      504     505      283     285      950     951
     652     653      990     991       11      13      934     935
     363     365       51      53      843     844      103     104
      25      26      296     297      593     595      201     203
     689     690       10      11      444     445      590     591
     349     351      858     859        1       2       38      39
     830     831      315     316      213     214      323     324
     234     235      121     123      883     885      331     332
     572     573      747     748      787     789      545     546
     723     725      677     679      919     921      951     953
     490     491      948     949      369     370      559     560
     675     676      707     708      927     929      457     458
      50      51      319     321      141     142      467     469
      80      81      365     367      842     843      337     339
     205     207      235     237      725     726      997     999
      91      93      446     447      853     855      631     632
     683     684      769     771      636     637      174     175
     317     318      218     219      190     191      850     851
     616     617      428     429      556     557      236     237
     755     757      435     436      525     526      711     713
      15      16      110     111      385     386      962     963
     725     727      821     822      339     340      265     267
     543     544      776     777      599     601      220     221
     666     667      873     874      353     354       47      49
     412     413      585     587      865     867      287     288
     704     705      602     603       97      98      287     289
     859     860      720     721      156     157      303     304
     439     441      821     823       24      25      957     959
     167     169      649     651        3       5      111     113
     873     875      331     333      610     611      843     845
     263     265      535     536      905     906      192     193
     530     531      729     730      797     799      485     487
     165     166      241     243      455     457      261     262
     773     774      663     664      131     132      795     796
     987     989      523     525      486     487      239     240
     679     681        1       3       65      67      144     145
     971     972      628     629      813     815      728     729
     307     308      208     209      224     225      663     665
     274     275      742     743       23      24      711     712
     423     425      401     402      585     586      163     164
     255     257      557     558      925     927      487     489
     829     831      171     172      233     235      653     654
       7       8      115     116      328     329      877     878
      89      91       15      17      476     477      381     382
     767     769      895     897      293     294      855     856
     959     960      827     828       33      34      554     555
      42      43      217     218      709     711      365     366
     944     945      555     556       49      51      379     381
     619     620      520     521      425     427      890     891
     276     277      492     493      248     249       29      31
     589     590      959     961      913     915      285     287
     782     783      815     817      355     357      563     565
     419     420      217     219      789     790      189     191
     459     460       87      89       74      75      953     954
     566     567      751     753      109     111      440     441
     427     428      577     579      197     199       76      77
     929     930      507     508       85      86      237     238
     999    1000      376     377      624     625      719     721
      93      94      155     157      575     576      278     279
     195     196      259     260      771     772      250     251
     693     694      148     149      307     309      347     348
     537     539      120     121      784     785      312     313
     511     512      881     882      609     611      988     989
     332     333      726     727      642     643      529     531
     206     207      526     527      104     105      949     950
     498     499      361     363      545     547      915     917
     740     741      442     443      625     627      133     135
     877     879      612     613      232     233      415     416
     382     383      186     187      127     128      369     371
     193     194      341     342      431     432      257     258
     580     581      675     677      651     652      695     696
     113     114      367     368      935     936      404     405
     499     501      619     621      475     476      741     743
     805     806      723     724      354     355      822     823
     451     452      919     920       53      54      979     980
     518     519      694     695      172     173      533     535
     562     563      681     682      606     607      327     329
     932     933      324     325      848     849      519     520
     614     615      713     714      901     902       30      31
     389     391      386     387      533     534      859     861
     358     359      802     803      975     977      505     506
     303     305      774     775       41      43      664     665
     871     872      837     839      978     979      575     577
     509     510      195     197      281     283      329     330
     889     891      275     277      154     155      755     756
      39      40      309     311      453     454       55      56
     573     574      715     716      986     987      657     659
     125     126      941     942       95      96       47      48
      73      75      470     471      623     624      906     907
     277     278      892     893      182     183      481     483
     811     812       37      39      413     414      311     312
     703     705      876     877      947     948      292     293
     623     625      277     279      344     345      249     251
     639     641      147     149      395     397      441     442
     119     121      367     369      811     813      116     117
     401     403      878     879      163     165      783     785
     311     313       57      58      618     619      463     465
     579     580      591     592      199     200      638     639
     103     105      977     978      541     543      960     961
     251     252      269     270       96      97      734     735
     170     171      855     857      461     462      922     923
     827     829      213     215      231     233      334     335
     785     786      803     804      654     655      185     187
     433     435       13      15       70      71      383     385
     989     990      692     693      579     581       27      28
     244     245      604     605      930     931      443     444
     871     873      351     353      846     847      517     518
     534     535      408     409      561     562      288     289
     700     701      136     137      613     614      233     234
     419     421      896     897      299     300      205     206
     107     108      767     768      860     861      953     955
     799     800      833     834       27      29      219     220
     253     254      151     152      123     124      371     372
     561     563      903     905      282     283      677     678
     709     710       85      87      333     335      847     849
     483     484      844     845      816     817      686     687
     385     387      645     646      357     359      687     689
     259     261       79      80      129     131      931     933
     939     941      173     174      791     792       92      93
     340     341      430     431       18      19      189     190
     437     438      309     310      210     211      853     854
     964     965      482     483      809     811      778     779
      81      82      875     876      985     987      161     163
     581     582      891     893      902     903      594     595
     921     923      918     919      155     156      341     343
     257     259      651     653      560     561      875     877
     405     406      521     522      965     967      464     465
     891     892      745     747      291     293      732     733
     907     908      662     663      851     852      475     477
     825     827      823     824      996     997      264     265
     448     449       59      61      361     362      743     744
     567     568      780     781      798     799      242     243
     133     134       67      69      698     699      806     807
     713     715      973     974      630     631      547     548
     512     513      417     419      601     603      516     517
      13      14      505     507      982     983      653     655
     800     801       25      27      640     641       69      71
     149     150      105     107      102     103      954     955
     909     910       75      77       83      85      503     504
     791     793       39      41      699     701      478     479
     573     575      715     717      295     296      432     433
     118     119      829     830      552     553      762     763
     697     698      187     188      670     671       31      32
     305     307       56      57      940     941      716     717
     140     141      984     985      839     841       98      99
     621     622      479     480      494     495       45      46
     460     461      414     415      191     193      339     341
     407     408      524     525      851     853      429     431
     237     239      657     658       29      30       73      74
     403     404      771     773      737     738      591     593
     777     779       87      88      738     739        9      10
     746     747      226     227      178     179      198     199
     703     704      139     140      387     388      359     360
     378     379      330     331      157     159      447     448
     965     966      514     515      122     123      639     640
     270     271      559     561      783     784      719     720
     804     805      673     674      731     733      193     195
     211     213       68      69      531     533      864     865
     503     505      868     869      863     864      773     775
     995     997       78      79      641     642      912     913
     175     177      130     131      219     221      967     969
     134     135      501     502      765     766      936     937
      53      55      370     371      967     968      569     570
     221     223      325     326      937     938       79      81
     841     843      477     478      681     683      760     761
     857     858      301     302      632     633      411     413
     646     647      764     765      914     915      895     896
     499     500      937     939      436     437      477     479
     903     904       35      37      316     317      555     557
     655     656      669     671       43      45       55      57
     983     985      794     795      834     835      945     947
     246     247      589     591      343     344      521     523
     390     391      942     943      493     495       41      42
     459     461      701     702      413     415      717     718
     153     154      281     282      225     226      320     321
     445     446      947     949      889     890       99     100
     861     862      472     473      567     569      584     585
     730     731       21      22      145     146       32      33
      19      21      399     400      161     162      318     319
     957     958      553     555       34      35      181     182
     737     739      568     569      177     179      671     673
     817     818      297     299      194     195      377     379
     329     331      481     482       21      23      291     292
     251     253      696     697      149     151      977     979
     513     515      825     826      510     511      415     417
     880     881      909     911      785     787      266     267
     313     315      238     239      707     709      143     145
      11      12       51      52       59      60      949     951
     989     991      488     489      496     497      987     988
     147     148      593     594      790     791      119     120
     397     398       77      79      443     445      463     464
     126     127      417     418      787     788      682     683
     352     353      187     189      759     760       72      73
     951     952      749     751      299     301      935     937
     925     926      691     692      833     835      465     466
     366     367      550     551      185     186      658     659
      83      84      705     707      240     241      141     143
     845     846      138     139      337     338      235     236
     997     998      544     545      898     899      207     208
     449     450      631     633      769     770      763     764
     680     681      403     405      519     521      712     713
     173     175      887     888      273     274      535     537
     607     609      831     833      849     851      727     729
     807     808      207     209       31      33      204     205
     586     587       71      72      866     867      647     648
      81      83      359     361      565     567      775     777
     605     606      665     667      319     320      660     661
       9      11       97      99      335     336       94      95
     856     857      754     755      357     358      581     583
     429     430      255     256      348     349      649     650
     129     130      931     932      939     940      882     883
     268     269      836     837      777     778       46      47
      62      63      392     393      626     627      941     943
     739     741      729     731      907     909      596     597
     406     407      501     503      254     255      157     158
     820     821      635     636      910     911      128     129
     523     524      495     496      679     680      293     295
     325     327      441     443      921     922      993     994
     114     115      731     732      547     549       28      29
      36      37      211     212      183     184      745     746
     611     612      300     301      548     549      758     759
     241     242      582     583      724     725      202     203
     789     791      452     453      151     153      484     485
     549     550      644     645      665     666      171     173
     650     651      372     373      125     127      629     631
     655     657       71      73      468     469      869     871
     295     297      159     160      810     811      733     734
     164     165      605     607      314     315      180     181
     549     551      613     615      409     411      426     427
     536     537      701     703       69      70      137     139
     943     945      473     474      106     107      153     155
     897     899      766     767      603     604      123     125
     861     863      961     962       45      47      333     334
     699     700      879     881      600     601      849     850
     669     670      181     183      100     101      862     863
     398     399      945     946      817     819      775     776
     812     813      305     306      929     931       60      61
     958     959      267     268      168     169      284     285
     179     180      659     661      379     380      801     802
      93      95      818     819      633     634      538     539
     685     686      908     909      753     755      101     102
     916     917      994     995      693     695      924     925
     690     691       75      76      963     964      289     290
     214     215      456     457      881     883      609     610
     267     269      553     554      748     749      209     210
     801     803      200     201       61      63      391     393
     969     970      297     298      641     643      222     223
     595     597      405     407      253     255      395     396
     933     934      615     616      814     815      272     273
     786     787      722     723      676     677      883     884
     465     467      901     903      757     758      733     735
     143     144      169     171      845     847      113     115
     152     153      643     644      420     421      449     451
     223     224      926     927      466     467       67      68
     569     571      532     533      741     742      160     161
     799     801      656     657      433     434      601     602
      90      91      108     109      852     853      757     759
     256     257      273     275      995     996      915     916
     245     247      431     433      451     453      175     176
     807     809      838     839      471     472      643     645
     779     781      425     426      571     572      223     225
     327     328      517     519       16      17      457     459
     617     618      710     711       64      65      394     395
     489     491      271     272      243     244      421     423
     304     305      389     390      598     599      955     957
     735     737      351     352      409     410      221     222
     502     503      667     668      179     181      599     600
     981     982      373     374      943     944      286     287
     841     842      422     423       17      19      438     439
     491     492      479     481      956     957      166     167
     752     753      262     263        3       4       57      59
     717     719      565     566      796     797      537     538
     768     769      145     147      212     213       99     101
     117     119      905     907      495     497      551     552
     972     973      410     411      308     309      455     456
     837     838      480     481      899     900      227     228
     375     376      393     394      280     281      493     494
     249     250      993     995      761     762      923     925
     689     691      813     814        8       9      570     571
     747     749      294     295      542     543      199     201
     447     449      588     589      196     197      828     829
     974     975      450     451       88      89      515     517
     557     559       14      15      363     364       54      55
     231     232      271     273      721     723      894     895
     243     245      840     841      938     939      627     629
     805     807      946     947      483     485      736     737
     708     709      121     122      865     866      981     983
     603     605      356     357      317     319       63      64
     500     501      684     685      230     231      135     137
     107     109      597     598      629     630       77      78
     541     542      911     912      216     217      869     870
     188     189      508     509      353     355       86      87
     371     373      976     977      467     468      992     993
     368     369      285     286      750     751      421     422
     661     663       63      65      847     848      887     889
     383     384      991     992      819     820      622     623
     955     956      576     577      761     763      260     261
     751     752      137     138       20      21      109     110
     917     918      927     928      685     687      101     103
     661     662      647     649      705     706       58      59
     228     229      718     719      247     248      437     439
     991     993      306     307      527     529      335     337
     634     635      165     167      497     498      809     810
     209     211      781     782      969     971      743     745
     261     263      832     833      985     986      321     322
     528     529      469     470      727     728      388     389
     795     797      239     241      342     343      360     361
     247     249      659     660      111     112      132     133
     971     973      781     783      966     967      225     227
     229     230      396     397      763     765      607     608
     793     794      321     323      674     675      587     588
     928     929      380     381      980     981      229     231
      49      50      893     894        7       9       65      66
     611     613      583     584      434     435      313     314
     355     356      203     204       33      35      973     975
     169     170      697     699      326     327      893     895
     423     424      667     669      105     106      886     887
     867     868      397     399      497     499      487     488
     302     303      162     163       40      41      215     216
     310     311      620     621       89      90      975     976
     574     575      749     750      135     136      201     202
     374     375      888     889      346     347      683     685
     279     281      904     905      543     545      489     490
     473     475      215     217      507     509      184     185
     525     527      688     689       82      83      551     553
     279     280      139     141      621     623      913     914
     899     901      735     736      563     564      393     395
     702     703      970     971      831     832       37      38
     558     559      511     513      227     229      527     528
      91      92       17      18      897     898      592     593
      23      25      608     609      345     346      633     635
     400     401      117     118      879     880      963     965
     462     463      289     291      671     672        6       7
     387     389      823     825      381     383      540     541
     445     447      687     688      648     649      695     697
     131     133      826     827      564     565      933     935
      44      45      739     740      923     924      615     617
     191     192       12      13      439     440      364     365
      52      53      269     271      529     530      336     337
     578     579      673     675      753     754       22      23
     803     805      870     871      350     351      625     626
     159     161      263     264      968     969      597     599
     884     885      402     403      979     981      835     836
     797     798      911     913      485     486      418     419
     323     325      788     789      678     679      515     516
      61      62      391     392      146     147      885     886
     721     722      920     921      952     953       26      27
     183     185      595     596      627     628      124     125
     819     821      115     117      672     673      744     745
     917     919      322     323      506     507      471     473
     617     619      283     284      571     573      338     339
     509     511      998     999 

    1994 !NTHETA
     592     593     595      722     723     725       22      23      25
     113     115     116      306     307     308      140     141     143
     995     997     999       18      19      20      233     235     237
     451     453     455      929     931     932      185     187     188
     602     603     605      352     353     354      210     211     212
     547     549     550      975     977     979      475     477     478
      99     101     103      510     511     512      772     773     774
     728     729     730      781     783     785      437     439     441
     567     569     571        4       5       6      782     783     785
     590     591     593       12      13      14      648     649     650
     357     359     361      418     419     420      575     577     579
     783     785     786      257     259     261      986     987     989
     154     155     157       69      71      73      402     403     405
     818     819     820      871     873     874      906     907     909
     208     209     210      136     137     139      859     861     862
     744     745     747      384     385     386      321     323     324
     618     619     621      993     995     996      311     313     315
     529     531     533        2       3       4      790     791     792
     940     941     943      971     973     975      961     963     965
     118     119     121      799     801     803      329     331     333
     162     163     164      189     191     193      350     351     353
     389     391     392      965     967     969      109     111     113
      97      99     101      925     927     929      653     655     657
     398     399     401      205     207     208      155     157     159
     724     725     727       42      43      45      882     883     885
     317     319     320      386     387     389      604     605     606
     525     527     529      786     787     788      938     939     940
     442     443     444      363     365     367      725     727     728
     394     395     397      133     135     137      594     595     597
     698     699     701      561     563     564      800     801     803
     141     143     144      313     315     316      533     535     536
      85      87      89      531     533     534      439     441     443
     151     153     155      615     617     619      650     651     652
     931     933     934      302     303     304      603     605     606
     488     489     491      577     579     581      649     651     653
     212     213     214      720     721     723      901     903     905
     725     727     729      138     139     141        9      11      12
     655     657     658      194     195     196      146     147     149
     276     277     279      139     141     142      860     861     863
      81      83      84      184     185     187      191     193     195
     745     747     748      798     799     800      256     257     258
      50      51      53      262     263     265      629     631     632
     230     231     232      343     345     347      665     667     669
     400     401     403      119     121     122      157     159     161
     721     723     725       38      39      40      880     881     882
     236     237     239      454     455     457      607     609     611
     319     321     322      122     123     125      941     943     945
     869     871     872      480     481     483      309     311     313
     527     529     531      327     329     330      365     367     369
     516     517     518      507     509     511      504     505     506
     596     597     599      289     291     293      373     375     376
     628     629     630      458     459     460      945     947     949
      96      97      98      824     825     826      830     831     833
     546     547     548      254     255     257      651     653     655
      84      85      86      214     215     216      550     551     553
     685     687     689      750     751     753      894     895     896
     433     435     436      821     823     825      958     959     960
     543     545     547      285     287     288      460     461     462
     614     615     617      611     613     615      805     807     809
     195     197     199      104     105     107      381     383     385
     192     193     195      227     229     230      338     339     340
     556     557     558      874     875     877      150     151     152
     258     259     260      761     763     765      666     667     669
     826     827     829      875     877     878      247     249     251
      21      23      24      477     479     480      746     747     749
     474     475     477      926     927     928      231     233     235
     376     377     378      601     603     604      660     661     663
      77      79      81      954     955     956      249     251     252
     881     883     885       15      17      18      606     607     608
     284     285     286      393     395     396      366     367     369
     811     813     814      801     803     805      917     919     921
      90      91      92      436     437     438      281     283     285
     766     767     768      532     533     535      870     871     873
     375     377     378      608     609     611      630     631     632
     770     771     773      585     587     588      455     457     459
     580     581     583      764     765     767       82      83      85
     838     839     841      904     905     907      305     307     309
     435     437     438      409     411     412      690     691     692
     853     855     856      124     125     127      145     147     148
     270     271     272      180     181     182      542     543     544
     304     305     306      417     419     420      707     709     711
     934     935     937      335     337     338        6       7       9
     553     555     556      206     207     209      839     841     842
     197     199     201      489     491     492      370     371     373
     252     253     254      599     601     603      514     515     516
     344     345     347      114     115     117      396     397     398
     771     773     775       60      61      63      371     373     374
     269     271     272      668     669     671       11      13      15
       1       3       4      541     543     544      638     639     640
     303     305     306      726     727     728       75      77      78
     565     567     569      315     317     319      399     401     403
     784     785     786      312     313     315      530     531     533
     169     171     172      368     369     371       87      89      90
     985     987     988       57      59      60      636     637     638
     847     849     851      152     153     155      438     439     440
     229     231     232      689     691     693      148     149     150
     422     423     425      737     739     741      767     769     771
     980     981     982      367     369     370      755     757     759
     902     903     904      654     655     657      492     493     494
     549     551     553      477     479     481      274     275     277
     620     621     623      708     709     711       13      15      16
     814     815     816      586     587     589      282     283     284
     272     273     274      581     583     584      808     809     811
     952     953     954      198     199     201      419     421     422
     981     983     984      809     811     812      742     743     744
     174     175     177      326     327     328      687     689     690
     385     387     388      928     929     930      759     761     763
      62      63      65      617     619     620      156     157     158
     234     235     237       83      85      87      301     303     305
     727     729     731      196     197     199       53      55      57
     290     291     292      101     103     104      916     917     918
     372     373     375      659     661     663      153     155     157
     325     327     328      370     371     372       26      27      28
     940     941     942      171     173     174      324     325     326
     991     993     995      161     163     164      217     219     220
     563     565     566      498     499     500      849     851     853
     207     209     211      992     993     995      449     451     452
     102     103     105      730     731     732      424     425     427
     769     771     773      857     859     861      918     919     921
     369     371     372      495     497     499      278     279     280
     240     241     243      624     625     626      787     789     790
     822     823     824      503     505     506      696     697     698
     884     885     886       93      95      96      423     425     426
     331     333     335      968     969     970      397     399     400
     622     623     625      710     711     713      482     483     485
     794     795     796      676     677     678      200     201     203
     283     285     287      983     985     986       66      67      68
     213     215     216      893     895     896      193     195     197
     892     893     895      328     329     330      674     675     677
     248     249     251      947     949     951       14      15      17
     459     461     462      246     247     248       58      59      60
     969     971     972      810     811     813      568     569     571
     675     677     678      657     659     661      318     319     321
      17      19      20      416     417     419       40      41      42
     379     381     383      729     731     733      130     131     132
     337     339     340      855     857     859      886     887     889
     175     177     178      536     537     538      374     375     377
     780     781     782      445     447     449      623     625     627
      74      75      76      245     247     248       76      77      79
     843     845     846      220     221     222      692     693     695
     844     845     847      996     997     998      932     933     935
     925     927     928      428     429     431      637     639     640
     572     573     574       39      41      42      429     431     432
     466     467     468      711     713     714      976     977     978
     321     323     325      216     217     218      232     233     235
     552     553     555      450     451     453      896     897     898
     103     105     106      355     357     358       89      91      92
     505     507     508       48      49      51      823     825     827
     414     415     416      228     229     231      753     755     756
      45      47      49      425     427     428      462     463     464
     619     621     623       70      71      72      389     391     393
     678     679     680      465     467     468      825     827     828
     280     281     283      850     851     852      748     749     750
     836     837     838      340     341     342      261     263     265
     558     559     560      895     897     898       46      47      48
     877     879     880      317     319     321      179     181     182
      86      87      89      279     281     282      812     813     815
      43      45      47      714     715     716      642     643     645
     524     525     526       56      57      59      501     503     504
     840     841     842      967     969     971      872     873     874
     509     511     512      688     689     690      521     523     525
     792     793     794      141     143     145       18      19      21
     862     863     864      352     353     355      775     777     779
     210     211     213       92      93      94      108     109     111
     694     695     697      911     913     915      672     673     674
     639     641     642      441     443     444      510     511     513
     772     773     775      829     831     833      924     925     927
     955     957     958      728     729     731      501     503     505
     211     213     214        4       5       7      468     469     470
       9      11      13      265     267     269      395     397     399
       5       7       8      693     695     696      861     863     864
     564     565     567      933     935     936       91      93      94
     128     129     130      437     439     440      334     335     337
     147     149     150      682     683     684      266     267     268
     473     475     476      833     835     836      861     863     865
      72      73      74      712     713     715      506     507     509
     790     791     793      679     681     683      518     519     521
     762     763     765      239     241     243      170     171     172
     263     265     267      646     647     648      950     951     953
     691     693     694      813     815     816      718     719     720
     271     273     274      464     465     466      181     183     184
     951     953     954       78      79      81      644     645     647
     526     527     528      732     733     735      478     479     481
     858     859     861      189     191     192      453     455     457
     715     717     719      444     445     446      763     765     766
     112     113     114      515     517     518      645     647     648
     448     449     451      490     491     492      604     605     607
     834     835     836        8       9      10      938     939     941
     155     157     158       32      33      35      936     937     938
     166     167     168      569     571     572      699     701     702
      54      55      56      837     839     841      223     225     227
     443     445     446      831     833     835      785     787     788
     982     983     984      820     821     822      540     541     542
     740     741     742      120     121     122      695     697     698
     212     213     215      407     409     410      909     911     912
      59      61      63      219     221     223       47      49      51
     641     643     644      522     523     524      694     695     696
     227     229     231      149     151     152      684     685     686
     956     957     959      129     131     133      485     487     488
     346     347     348      267     269     271      901     903     904
      25      27      29       24      25      26      241     243     245
     336     337     339      883     885     886      159     161     163
     816     817     818      806     807     808      511     513     515
     273     275     276      432     433     434      953     955     956
     393     395     397      230     231     233      702     703     704
     391     393     395       23      25      26      663     665     666
     446     447     448      671     673     674       31      33      34
      98      99     100      778     779     781      908     909     910
     914     915     917       19      21      22      412     413     414
     500     501     502      516     517     519      168     169     170
      88      89      91      504     505     507       95      97      99
     517     519     520      984     985     986      628     629     631
     905     907     909      409     411     413      458     459     461
     497     499     501      960     961     962       96      97      99
     632     633     634      134     135     136      478     479     480
     143     145     147      698     699     700      888     889     891
     751     753     754       84      85      87      214     215     217
     499     501     502      640     641     643      889     891     892
     958     959     961      625     627     628      404     405     406
     164     165     166      910     911     913      269     271     273
     242     243     245      789     791     793      992     993     994
     303     305     307      697     699     700       52      53      54
     413     415     416       61      63      65      338     339     341
     556     557     559      123     125     126      461     463     464
     920     921     922      795     797     798      739     741     743
     677     679     680      837     839     840      406     407     408
     295     297     299      600     601     602      747     749     750
     835     837     838      215     217     219      520     521     522
     854     855     856      229     231     233      635     637     638
     954     955     957      447     449     451      247     249     250
     284     285     287      566     567     568      157     159     160
     743     745     746      754     755     756      231     233     234
     481     483     485      574     575     576      704     705     706
     866     867     869       90      91      93      278     279     281
     339     341     343      630     631     633       20      21      23
     571     573     575      701     703     705      779     781     782
     917     919     920       65      67      69      281     283     284
     528     529     530      962     963     965      466     467     469
     150     151     153      573     575     576      743     745     747
     199     201     203        8       9      11      188     189     190
     687     689     691      467     469     470      270     271     273
     304     305     307      244     245     247      897     899     900
     127     129     130      224     225     226      652     653     654
     115     117     118      514     515     517      430     431     433
     867     869     871      959     961     962      105     107     109
     235     237     239      396     397     399       71      73      74
     187     189     190      921     923     925      819     821     823
     726     727     729      851     853     854      749     751     752
     939     941     942      107     109     110      362     363     364
     705     707     709      557     559     560      100     101     102
     757     759     760      784     785     787      449     451     453
     359     361     363      777     779     781      486     487     488
     636     637     639      576     577     578      706     707     708
     994     995     997      503     505     507      966     967     968
     341     343     345      470     471     472      413     415     417
     793     795     796      980     981     983      397     399     401
       7       9      10       34      35      37      293     295     297
     847     849     850      973     975     977      756     757     758
     963     965     967      713     715     716      609     611     612
     612     613     614      538     539     541      190     191     192
     111     113     115      469     471     472      272     273     275
     282     283     285      681     683     685      539     541     542
     752     753     754      927     929     931      252     253     255
      17      19      21      238     239     240      935     937     939
     742     743     745      683     685     686      165     167     169
     337     339     341      326     327     329      177     179     180
     555     557     559      865     867     868      928     929     931
     788     789     790       30      31      33      535     537     538
     221     223     225      483     485     487      116     117     119
     717     719     721      876     877     878      797     799     801
     364     365     366      647     649     650      582     583     584
     735     737     738      290     291     293      637     639     641
     916     917     919      531     533     535      589     591     592
     719     721     722      977     979     981       26      27      29
     431     433     434      291     293     294      323     325     326
     815     817     818      944     945     946      324     325     327
     923     925     927      727     729     730       27      29      30
     345     347     349      342     343     345       89      91      93
     277     279     281      661     663     665      415     417     419
     287     289     290      471     473     475      440     441     442
     587     589     590      167     169     170      804     805     806
     968     969     971      794     795     797      631     633     634
      35      37      38      179     181     183      121     123     124
      66      67      69      593     595     597      723     725     727
     523     525     526      421     423     424      964     965     966
     513     515     517      411     413     415      731     733     735
     802     803     804      283     285     286      294     295     296
     174     175     176      130     131     133      656     657     658
     508     509     510      253     255     256      919     921     922
     783     785     787      817     819     820      807     809     810
     780     781     783      299     301     302      405     407     408
     537     539     540      434     435     437      852     853     855
     987     989     991      703     705     706      562     563     564
     220     221     223      996     997     999      125     127     128
     173     175     176      613     615     616      993     995     997
     907     909     911      402     403     404      137     139     141
      51      53      55      634     635     636      979     981     983
     976     977     979      473     475     477      354     355     356
     275     277     279      618     619     620      216     217     219
     310     311     313      627     629     631      288     289     290
     117     119     121      960     961     963      943     945     947
     598     599     600      462     463     465       49      51      53
      70      71      73      186     187     189      271     273     275
     951     953     955      455     457     458      390     391     392
     588     589     591      748     749     751      836     837     839
     378     379     380      340     341     343       45      47      48
     583     585     587       79      81      83      763     765     767
     314     315     316      733     735     737      605     607     608
     296     297     298      803     805     807      561     563     565
     560     561     562      306     307     309      403     405     406
     524     525     527      361     363     364      225     227     228
     915     917     918      176     177     178      579     581     582
     616     617     618      942     943     944      856     857     858
     872     873     875      699     701     703      307     309     310
     846     847     848      594     595     596       33      35      36
     142     143     144      451     453     454      854     855     857
      12      13      15       92      93      95      648     649     651
     773     775     776      672     673     675      131     133     134
     521     523     524      418     419     421      909     911     913
      99     101     102      548     549     550      139     141     143
     476     477     478      845     847     848      781     783     784
     818     819     821      567     569     570      208     209     211
      10      11      12      330     331     332      545     547     549
     384     385     387      575     577     578      257     259     260
     946     947     948      128     129     131        2       3       5
     873     875     877      255     257     258      184     185     186
      72      73      75      162     163     165      311     313     314
     529     531     532      401     403     405      170     171     173
     680     681     682      961     963     964      300     301     302
      22      23      24      718     719     721       31      33      35
     297     299     301      239     241     242      526     527     529
      19      21      23       97      99     100      203     205     207
     250     251     252      380     381     382      653     655     656
     597     599     601      786     787     789      939     941     943
     112     113     115      848     849     850      570     571     572
     490     491     493      610     611     612      158     159     161
     433     435     437      525     527     528      494     495     496
     333     335     337      363     365     366      166     167     169
     551     553     555      751     753     755      479     481     483
      54      55      57      650     651     653      133     135     136
     302     303     305      351     353     354      388     389     390
     982     983     985      486     487     489      820     821     823
      85      87      88      878     879     880      204     205     206
     532     533     534      430     431     432      487     489     490
     605     607     609      740     741     743        7       9      11
     120     121     123      649     651     652      765     767     768
     948     949     950      522     523     525      420     421     423
     875     877     879      113     115     117      634     635     637
     900     901     902      795     797     799      929     931     933
     827     829     831      185     187     189      601     603     605
     346     347     349      209     211     212       24      25      27
      16      17      19      547     549     551      256     257     259
     747     749     751      475     477     479      835     837     839
     129     131     132      140     141     142      670     671     673
     347     349     350      226     227     229      816     817     819
     806     807     809      602     603     604       38      39      41
     163     165     166      544     545     546       36      37      38
     702     703     705      426     427     428      172     173     175
     871     873     875      721     723     724      383     385     386
     264     265     266      859     861     863      988     989     991
     607     609     610      986     987     988       98      99     101
     941     943     944      966     967     969      320     321     322
     435     437     439      527     529     530      500     501     503
     176     177     179      768     769     770      145     147     149
     168     169     171      136     137     138      824     825     827
     913     915     917      507     509     510      417     419     421
     546     547     549      984     985     987      839     841     843
     667     669     670      328     329     331      894     895     897
     632     633     635      891     893     894      134     135     137
     222     223     225      879     881     883      205     207     209
     382     383     384      460     461     463      651     653     654
     371     373     375      260     261     262        1       3       5
     949     951     953      115     117     119      821     823     824
     633     635     636       75      77      79      543     545     546
     404     405     407      187     189     191      841     843     845
      42      43      44      360     361     363      258     259     261
     578     579     581       52      53      55      882     883     884
     169     171     173      381     383     384      386     387     388
     313     315     317      259     261     262      625     627     629
     985     987     989      126     127     128      406     407     409
     931     933     935      183     185     186      603     605     607
     788     789     791      600     601     603      800     801     802
     377     379     380      658     659     660      774     775     776
     367     369     371      828     829     830      295     297     298
     332     333     334      436     437     439      566     567     569
     655     657     659      766     767     769      218     219     220
     559     561     562      656     657     659      754     755     757
     898     899     900      574     575     577      138     139     140
      81      83      85      797     799     800      970     971     972
     621     623     625      981     983     985      709     711     713
     809     811     813      629     631     633      586     587     588
     690     691     693      539     541     543      528     529     531
     119     121     123      180     181     183      758     759     760
     262     263     264      673     675     677      798     799     801
      55      57      58      188     189     191      319     321     323
     869     871     873      308     309     310      329     331     332
     224     225     227      316     317     318      652     653     655
     243     245     247      373     375     377      686     687     689
     225     227     229      106     107     108      771     773     774
     442     443     445       11      13      14      922     923     924
     362     363     365      660     661     662      484     485     486
     315     317     318      842     843     844      100     101     103
     930     931     932      819     821     822      830     831     832
     438     439     441      148     149     151      626     627     628
     576     577     579      439     441     442      151     153     154
     615     617     618      178     179     180      470     471     473
     991     993     994      194     195     197      737     739     740
     767     769     770      893     895     897      192     193     194
     493     495     496      755     757     758       35      37      39
     756     757     759      814     815     817      874     875     876
     952     953     955      612     613     615      387     389     390
     322     323     324      549     551     552      675     677     679
     249     251     253      421     423     425      826     827     828
     190     191     193       48      49      50      811     813     815
      14      15      16      191     193     194      880     881     883
     318     319     320      664     665     667      238     239     241
     156     157     159      245     247     249      375     377     379
     253     255     257      585     587     589      606     607     609
     299     301     303      405     407     409      787     789     791
     876     877     879      301     303     304       76      77      78
     173     175     177      457     459     460      613     615     617
      53      55      56        3       5       7       64      65      66
     498     499     501      989     991     993       29      31      32
     904     905     906      103     105     107      733     735     736
     408     409     410      717     719     720      496     497     498
     730     731     733      335     337     339      553     555     557
     353     355     356      489     491     493      251     253     254
     945     947     948      624     625     627      465     467     469
     149     151     153      822     823     825      201     203     205
     696     697     699       21      23      25      206     207     208
     348     349     350      542     543     545      440     441     443
     895     897     899      884     885     887       27      29      31
     356     357     358      495     497     498      864     865     866
     268     269     270      676     677     679      661     663     664
     885     887     888      279     281     283       60      61      62
     534     535     536      611     613     614      195     197     198
      87      89      91      509     511     513      643     645     647
      57      59      61      246     247     249      376     377     379
      58      59      61      915     917     919      392     393     394
     791     793     794       40      41      43      593     595     596
     491     493     494      441     443     445      502     503     504
     211     213     215       41      43      44      881     883     884
     773     775     777      131     133     135      990     991     993
     349     351     353      380     381     383        5       7       9
     221     223     224      855     857     858      845     847     849
     572     573     575      933     935     937      445     447     448
     700     701     702      863     865     866      144     145     146
     274     275     276      491     493     495      427     429     430
     708     709     710       15      17      19      896     897     899
     198     199     200      255     257     259      385     387     389
     987     989     990      519     521     523      691     693     695
     288     289     291      712     713     714      813     815     817
     633     635     637      137     139     140      678     679     681
     101     103     105      463     465     466      482     483     484
     823     825     826      850     851     853       62      63      64
     598     599     601      325     327     329      197     199     200
      46      47      49      234     235     236      669     671     673
     452     453     454      638     639     641      202     203     204
     161     163     165       44      45      46      645     647     649
     390     391     393      217     219     221      378     379     381
     563     565     567       28      29      30      314     315     317
     261     263     264      714     715     717      858     859     860
      67      69      70      448     449     450      565     567     568
     443     445     447      560     561     563      358     359     360
     997     999    1000      776     777     778       43      45      46
     792     793     795      102     103     104      616     617     619
      32      33      34      942     943     945      967     969     970
     918     919     920      846     847     849      423     425     427
     902     903     905      142     143     145      456     457     459
     641     643     645      689     691     692      492     493     495
     292     293     294      213     215     217      468     469     471
     828     829     831      659     661     662      775     777     778
     972     973     974      765     767     769      548     549     551
     957     959     961      354     355     357      476     477     479
     829     831     832      898     899     901      200     201     202
     459     461     463      969     971     973      110     111     112
     682     683     685       10      11      13      899     901     902
     209     211     213      395     397     398      266     267     269
     512     513     514      410     411     412      760     761     762
     890     891     892      946     947     949      568     569     570
     336     337     338      554     555     556      646     647     649
     758     759     761      163     165     167      843     845     847
     464     465     467      873     875     876      886     887     888
     679     681     682      716     717     718      680     681     683
     759     761     762      796     797     798      263     265     266
     444     445     447       47      49      50      711     713     715
     692     693     694      735     737     739      517     519     521
     778     779     780      182     183     184       80      81      82
     286     287     289      379     381     382      355     357     359
     298     299     300      662     663     664      505     507     509
     250     251     253      834     835     837      978     979     980
     715     717     718      472     473     474      832     833     834
     848     849     851      936     937     939       88      89      90
     158     159     160      425     427     429      570     571     573
     610     611     613      350     351     352      232     233     234
     160     161     162      849     851     852      937     939     940
     494     495     497      891     893     895      584     585     587
     175     177     179      686     687     688      974     975     976
     388     389     391      540     541     543       63      65      66
     223     225     226      831     833     834      868     869     870
     903     905     906      877     879     881      878     879     881
     741     743     744      684     685     687      479     481     482
     178     179     181      331     333     334       68      69      70
     762     763     764      948     949     951      685     687     688
     592     593     594      722     723     724      429     431     433
      59      61      62      900     901     903      642     643     644
     487     489     491      193     195     196      670     671     672
     183     185     187       74      75      77      635     637     639
     267     269     270      947     949     950      432     433     435
     377     379     381      639     641     643      536     537     539
     955     957     959      591     593     594      657     659     660
     827     829     830      159     161     162      446     447     449
     782     783     784      590     591     592      108     109     110
     511     513     514      729     731     732      544     545     547
     862     863     865       36      37      39      559     561     563
     693     695     697      924     925     926       30      31      32
     154     155     156       91      93      95      623     625     626
     391     393     394      426     427     429      779     781     783
     908     909     911      226     227     228      147     149     151
     412     413     415      264     265     267      906     907     908
     833     835     837      744     745     746      564     565     566
     320     321     323      334     335     336      768     769     771
     506     507     508       55      57      59      905     907     908
     123     125     127       29      31      33      222     223     224
     237     239     240      181     183     185      135     137     138
     497     499     500      518     519     520      913     915     916
     950     951     952      887     889     890      143     145     146
     382     383     385      619     621     622      398     399     400
     164     165     167      724     725     726      515     517     519
     260     261     263       78      79      80      644     645     646
     732     733     734      879     881     882      533     535     537
     840     841     843      890     891     893      394     395     396
     569     571     573      789     791     792      949     951     952
     688     689     691      785     787     789       61      63      64
     995     997     998      912     913     914      126     127     129
     233     235     236      841     843     844      520     521     523
     739     741     742      488     489     490      695     697     699
     658     659     661      975     977     978      407     409     411
     774     775     777      720     721     722      215     217     218
     704     705     707      447     449     450      332     333     335
     485     487     489      609     611     613      734     735     737
     911     913     914      218     219     221      357     359     360
     745     747     749      146     147     148      276     277     278
     493     495     497       34      35      36       69      71      72
     956     957     958      883     885     887      970     971     973
     265     267     268      387     389     391      273     275     277
     953     955     957       50      51      52      571     573     574
     701     703     704       23      25      27      865     867     869
     971     973     974      621     623     624      663     665     667
     400     401     402      709     711     712      799     801     802
     998     999    1000      199     201     202      236     237     238
     557     559     561      671     673     675      454     455     456
     109     111     112      122     123     124      308     309     311
     480     481     482       73      75      77      673     675     676
     316     317     319      291     293     295      452     453     455
     815     817     819      596     597     598      457     459     461
     738     739     740      914     915     916      105     107     108
     235     237     238      132     133     135      453     455     456
     360     361     362      106     107     109      578     579     580
     921     923     924       94      95      97      922     923     925
     243     245     246      499     501     503      254     255     256
     484     485     487      550     551     552      750     751     752
     842     843     845      838     839     840      930     931     933
     706     707     709      888     889     890      736     737     739
     359     361     362      626     627     629      640     641     642
     577     579     580      614     615     616      777     779     780
     697     699     701      104     105     106      885     887     889
     541     543     545      461     463     465      349     351     352
     910     911     912      242     243     244      677     679     681
     219     221     222      666     667     668      973     975     976
     963     965     966      746     747     748      322     323     325
     474     475     476      791     793     795       25      27      28
     456     457     458      734     735     736      512     513     515
     111     113     114      241     243     244      366     367     368
     681     683     684      343     345     346      665     667     668
     927     929     930      761     763     764       41      43      45
     889     891     893      537     539     541      935     937     938
     870     871     872      165     167     168      608     609     610
     364     365     367      555     557     558      770     771     772
     582     583     585      125     127     129      309     311     312
     580     581     582      866     867     868      764     765     766
     353     355     357      669     671     672      251     253     255
     853     855     857      365     367     368      434     435     436
     573     575     577       20      21      22      427     429     431
     289     291     292       64      65      67      467     469     471
     408     409     411      118     119     120      496     497     499
     962     963     964      978     979     981       95      97      98
     132     133     134      923     925     926      934     935     936
     897     899     901        6       7       8      127     129     131
       3       5       6      959     961     963      463     465     467
     344     345     346       71      73      75      114     115     116
     244     245     246      348     349     351      481     483     484
     471     473     474      356     357     359      668     669     670
     851     853     855      805     807     808      186     187     188
     749     751     753      107     109     111      268     269     271
     201     203     204      588     589     590      757     759     761
     920     921     923      534     535     537      403     405     407
      67      69      71      312     313     314      530     531     532
     964     965     967      307     309     311      368     369     370
     802     803     805      294     295     297      965     967     968
     723     725     726       33      35      37      392     393     395
     152     153     154       16      17      18       77      79      80
     584     585     586      793     795     797      513     515     516
     643     645     646      411     413     414      285     287     289
     422     423     424      731     733     734      863     865     867
     508     509     511      664     665     666      994     995     996
     654     655     656      502     503     505      801     803     804
      13      15      17       93      95      97      713     715     717
     581     583     585      990     991     992      419     421     423
     562     563     565      583     585     586      469     471     473
     620     621     622      860     861     862      700     701     703
     808     809     810      305     307     308      339     341     342
     899     901     903      538     539     540      144     145     147
     989     991     992      617     619     621      683     685     687
     177     179     181       65      67      68      907     909     910
      51      53      54      864     865     867      535     537     539
     979     981     982      707     709     710      275     277     278
     171     173     175      627     629     630      647     649     651
     196     197     198      599     601     602      117     119     120
     589     591     593      372     373     374      719     721     723
     943     945     946      431     433     435      116     117     118
     519     521     522       49      51      52      323     325     327
     202     203     205       44      45      47      867     869     870
     296     297     299      369     371     373      399     401     402
      28      29      31       79      81      82      287     289     291
     856     857     859      424     425     426      351     353     355
     705     707     708      342     343     344      358     359     361
     240     241     242      587     589     591      803     805     806
     937     939     941      776     777     779      167     169     171
     912     913     915      595     597     598      983     985     987
     124     125     126       63      65      67      327     329     331
     622     623     624      710     711     712      903     905     907
     631     633     635      741     743     745      121     123     125
     292     293     295      341     343     344      972     973     975
     523     525     527      330     331     333      293     295     296
     892     893     894      674     675     676      248     249     250
     420     421     422      595     597     599      752     753     755
     110     111     113      347     349     351      736     737     738
     810     811     812      277     279     280      926     927     929
     410     411     413      957     959     960      760     761     763
     545     547     548      416     417     418      919     921     923
     817     819     821      807     809     811      591     593     595
     374     375     376      554     555     557       39      41      43
     300     301     303      383     385     387      703     705     707
      83      85      86      716     717     719      401     403     404
     844     845     846      932     933     934      796     797     799
     428     429     430       82      83      84       37      39      40
     153     155     156      172     173     174      483     485     486
     852     853     854      944     945     947      988     989     990
     286     287     288      753     755     757      297     299     300
     182     183     185       80      81      83      552     553     554
     298     299     301      450     451     452      977     979     980
     662     663     665      667     669     671      738     739     741
      94      95      96      203     205     206      825     827     829
     207     209     210      558     559     561      597     599     600
     472     473     475      832     833     835      228     229     230
     769     771     772      857     859     860      310     311     312
     345     347     348      160     161     163      414     415     417
      37      39      41      237     239     241      135     137     139
      73      75      76      804     805     807      280     281     282
     415     417     418      887     889     891      974     975     977
     333     335     336      551     553     554      204     205     207
     868     869     871       86      87      88      812     813     814
     361     363     365      259     261     263      579     581     583
      68      69      71       56      57      58 

    1494 !NPHI
      72      71      73      74      492     493     495     496
      46      45      47      48      669     671     673     675
     588     587     589     590      915     917     919     921
     426     425     427     428      976     977     979     980
     432     433     435     436      688     689     691     692
     946     947     949     950      857     859     861     863
     958     957     959     960      365     367     369     371
     364     363     365     366      962     963     965     966
     746     747     749     750      251     253     255     257
     801     803     805     807      266     267     269     270
     657     659     661     663      682     681     683     684
     348     349     351     352      338     337     339     340
     795     797     799     801      608     607     609     610
     510     511     513     514      180     181     183     184
     794     793     795     796      381     383     385     387
     689     691     693     695      592     593     595     596
     499     501     503     505      616     617     619     620
     981     983     985     987      980     981     983     984
     580     579     581     582      508     509     511     512
       8       9      11      12      474     475     477     478
     974     973     975     976      471     473     475     477
      55      57      59      61      224     223     225     226
     786     785     787     788      260     261     263     264
     687     689     691     693      653     655     657     659
       8       7       9      10      930     931     933     934
     652     651     653     654      436     435     437     438
     484     483     485     486      298     299     301     302
     522     523     525     526      705     707     709     711
     326     327     329     330       31      33      35      37
     597     599     601     603      896     897     899     900
      74      73      75      76      509     511     513     515
     140     141     143     144      775     777     779     781
     596     595     597     598      774     773     775     776
     808     807     809     810      561     563     565     567
     456     455     457     458       84      85      87      88
     386     387     389     390      202     203     205     206
     998     997     999    1000      612     611     613     614
     486     485     487     488      943     945     947     949
     320     321     323     324      933     935     937     939
     730     731     733     734      886     885     887     888
      68      69      71      72      205     207     209     211
     945     947     949     951      622     621     623     624
     726     727     729     730      748     749     751     752
     253     255     257     259      803     805     807     809
     734     733     735     736      240     241     243     244
     154     155     157     158      340     339     341     342
     328     329     331     332      728     729     731     732
     396     395     397     398       44      43      45      46
     526     525     527     528      839     841     843     845
     174     173     175     176      230     229     231     232
     313     315     317     319      610     611     613     614
     583     585     587     589      983     985     987     989
     502     503     505     506      964     965     967     968
     286     285     287     288      982     981     983     984
     958     959     961     962      985     987     989     991
     666     667     669     670      473     475     477     479
     467     469     471     473      364     365     367     368
     678     677     679     680      232     231     233     234
     770     771     773     774      391     393     395     397
     788     787     789     790      541     543     545     547
     682     683     685     686       58      57      59      60
     932     933     935     936       15      17      19      21
     438     437     439     440      440     439     441     442
     138     137     139     140      354     353     355     356
     416     415     417     418      112     113     115     116
     187     189     191     193      842     841     843     844
     885     887     889     891      496     495     497     498
     600     601     603     604      675     677     679     681
     655     657     659     661      884     883     885     886
     114     115     117     118      358     359     361     362
     574     575     577     578        6       7       9      10
     629     631     633     635      376     375     377     378
     607     609     611     613      654     653     655     656
     786     787     789     790      506     505     507     508
     535     537     539     541      124     125     127     128
      77      79      81      83      330     329     331     332
     758     759     761     762      436     437     439     440
     155     157     159     161      816     817     819     820
      70      69      71      72      624     623     625     626
     834     833     835     836      964     963     965     966
     129     131     133     135      710     711     713     714
     806     807     809     810      967     969     971     973
      24      23      25      26      808     809     811     812
     670     671     673     674      119     121     123     125
     562     561     563     564      771     773     775     777
     106     107     109     110      486     487     489     490
     206     205     207     208      303     305     307     309
     663     665     667     669      878     877     879     880
     445     447     449     451      228     229     231     232
     773     775     777     779      582     583     585     586
     790     789     791     792       94      95      97      98
     338     339     341     342      554     555     557     558
     819     821     823     825      924     923     925     926
     148     147     149     150      176     175     177     178
     392     391     393     394      505     507     509     511
     489     491     493     495      614     615     617     618
      45      47      49      51       32      33      35      36
     141     143     145     147      236     237     239     240
     916     917     919     920      297     299     301     303
     390     389     391     392        1       3       5       7
     611     613     615     617      122     123     125     126
     874     875     877     878      576     577     579     580
     465     467     469     471      466     467     469     470
     560     559     561     562       85      87      89      91
     578     579     581     582       79      81      83      85
     511     513     515     517      276     277     279     280
     166     167     169     170      284     285     287     288
     840     841     843     844       78      77      79      80
     294     293     295     296      751     753     755     757
     438     439     441     442      425     427     429     431
     224     225     227     228      697     699     701     703
     521     523     525     527      750     749     751     752
     157     159     161     163      700     699     701     702
     728     727     729     730      345     347     349     351
     452     451     453     454       60      61      63      64
     242     241     243     244      589     591     593     595
     352     351     353     354       13      15      17      19
     991     993     995     997      330     331     333     334
     701     703     705     707      712     713     715     716
      52      53      55      56      216     217     219     220
     886     887     889     890      382     381     383     384
     271     273     275     277      220     221     223     224
     120     119     121     122      986     985     987     988
     849     851     853     855      264     263     265     266
     236     235     237     238      866     865     867     868
     397     399     401     403       16      15      17      18
     309     311     313     315      525     527     529     531
     724     723     725     726      823     825     827     829
     553     555     557     559      314     315     317     318
     844     843     845     846      277     279     281     283
     508     507     509     510      588     589     591     592
     204     205     207     208      670     669     671     672
     714     713     715     716      396     397     399     400
     686     687     689     690      707     709     711     713
     194     195     197     198      177     179     181     183
     610     609     611     612      468     469     471     472
     479     481     483     485       14      15      17      18
     151     153     155     157      175     177     179     181
     100     101     103     104      168     169     171     172
     196     197     199     200      440     441     443     444
      22      23      25      26      810     809     811     812
     296     295     297     298      250     249     251     252
     442     443     445     446      940     939     941     942
     121     123     125     127      244     243     245     246
     704     703     705     706       25      27      29      31
     428     427     429     430      591     593     595     597
     870     871     873     874       48      47      49      50
     868     867     869     870      490     489     491     492
     106     105     107     108      946     945     947     948
     620     619     621     622      395     397     399     401
     462     463     465     466      123     125     127     129
     292     293     295     296      639     641     643     645
     218     219     221     222       10      11      13      14
     992     993     995     996       78      79      81      82
     294     295     297     298      556     555     557     558
     153     155     157     159      717     719     721     723
      49      51      53      55      527     529     531     533
      82      83      85      86      512     511     513     514
      47      49      51      53      718     719     721     722
     316     315     317     318      475     477     479     481
     145     147     149     151      279     281     283     285
     474     473     475     476      664     665     667     668
     477     479     481     483      774     775     777     778
     788     789     791     792      590     589     591     592
     843     845     847     849      308     307     309     310
     524     523     525     526      986     987     989     990
     478     477     479     480      100      99     101     102
     334     333     335     336      978     977     979     980
     169     171     173     175      812     813     815     816
     960     959     961     962      298     297     299     300
     534     533     535     536      133     135     137     139
     417     419     421     423      132     131     133     134
     348     347     349     350      805     807     809     811
     630     631     633     634      300     299     301     302
     804     803     805     806       27      29      31      33
     239     241     243     245      306     307     309     310
     872     873     875     876      900     901     903     904
     476     477     479     480      955     957     959     961
     902     903     905     906      409     411     413     415
     136     135     137     138      948     947     949     950
     185     187     189     191      292     291     293     294
     749     751     753     755      536     535     537     538
      82      81      83      84      862     863     865     866
     126     127     129     130      558     559     561     562
     296     297     299     300      270     271     273     274
     558     557     559     560      370     369     371     372
     570     571     573     574      901     903     905     907
     233     235     237     239      431     433     435     437
     693     695     697     699      721     723     725     727
     605     607     609     611      429     431     433     435
     826     825     827     828      829     831     833     835
     227     229     231     233      828     827     829     830
     104     103     105     106      777     779     781     783
     564     563     565     566      504     505     507     508
     124     123     125     126      263     265     267     269
     379     381     383     385       46      47      49      50
     283     285     287     289      994     995     997     998
     776     775     777     778      343     345     347     349
     262     261     263     264      688     687     689     690
     602     601     603     604      552     551     553     554
     990     991     993     994      448     449     451     452
     171     173     175     177      710     709     711     712
     814     813     815     816       70      71      73      74
     156     157     159     160      584     585     587     588
     925     927     929     931      815     817     819     821
      64      65      67      68      797     799     801     803
     738     737     739     740      660     661     663     664
     916     915     917     918      873     875     877     879
     534     535     537     538      507     509     511     513
       7       9      11      13      796     795     797     798
     744     745     747     748      799     801     803     805
     835     837     839     841      770     769     771     772
     302     301     303     304      308     309     311     312
     524     525     527     528       19      21      23      25
     978     979     981     982      485     487     489     491
     212     211     213     214      680     681     683     684
     310     311     313     314      268     269     271     272
      58      59      61      62      766     767     769     770
     960     961     963     964      192     191     193     194
     201     203     205     207      846     847     849     850
     626     625     627     628       59      61      63      65
     243     245     247     249      736     737     739     740
     378     377     379     380      455     457     459     461
     514     515     517     518      756     755     757     758
     272     273     275     276      132     133     135     136
      68      67      69      70      235     237     239     241
     712     711     713     714      320     319     321     322
     695     697     699     701      723     725     727     729
     972     973     975     976      182     183     185     186
     581     583     585     587      393     395     397     399
     237     239     241     243      136     137     139     140
     180     179     181     182      398     397     399     400
     154     153     155     156      265     267     269     271
     889     891     893     895       28      29      31      32
     457     459     461     463      862     861     863     864
     156     155     157     158      370     371     373     374
     996     995     997     998      642     643     645     646
     660     659     661     662      257     259     261     263
      72      73      75      76      927     929     931     933
      35      37      39      41      826     827     829     830
      66      65      67      68      102     103     105     106
     820     821     823     824      616     615     617     618
     875     877     879     881      335     337     339     341
     577     579     581     583      564     565     567     568
     846     845     847     848      576     575     577     578
     531     533     535     537      572     573     575     576
     281     283     285     287      532     533     535     536
      99     101     103     105      526     527     529     530
     914     915     917     918      864     863     865     866
     848     849     851     852      414     413     415     416
     168     167     169     170      245     247     249     251
     340     341     343     344      869     871     873     875
     897     899     901     903      326     325     327     328
     636     637     639     640      134     135     137     138
     896     895     897     898      162     163     165     166
     594     595     597     598      947     949     951     953
     424     423     425     426      164     165     167     168
     649     651     653     655      757     759     761     763
     748     747     749     750      974     975     977     978
     642     641     643     644      192     193     195     196
     184     183     185     186      315     317     319     321
     618     617     619     620      314     313     315     316
     372     373     375     376        5       7       9      11
     644     645     647     648      542     541     543     544
     333     335     337     339      753     755     757     759
     855     857     859     861      232     233     235     236
     418     417     419     420      685     687     689     691
     252     253     255     256       40      39      41      42
      37      39      41      43      234     235     237     238
     692     691     693     694      979     981     983     985
     848     847     849     850      666     665     667     668
     602     603     605     606      282     281     283     284
     767     769     771     773      674     673     675     676
     143     145     147     149      196     195     197     198
     662     663     665     666      923     925     927     929
     390     391     393     394      989     991     993     995
     415     417     419     421      443     445     447     449
     764     765     767     768      288     289     291     292
     838     837     839     840      755     757     759     761
      28      27      29      30      161     163     165     167
     246     245     247     248      716     717     719     720
     410     409     411     412      899     901     903     905
     137     139     141     143      328     327     329     330
     427     429     431     433      898     897     899     900
     872     871     873     874      126     125     127     128
     596     597     599     600      949     951     953     955
     651     653     655     657      110     111     113     114
     206     207     209     210      372     371     373     374
     598     599     601     602      782     783     785     786
     628     629     631     632      287     289     291     293
     760     761     763     764      976     975     977     978
       4       5       7       8       57      59      61      63
     743     745     747     749      737     739     741     743
      22      21      23      24       56      55      57      58
     936     935     937     938      608     609     611     612
      52      51      53      54      648     647     649     650
     944     945     947     948      747     749     751     753
     374     375     377     378      796     797     799     800
     503     505     507     509      327     329     331     333
     858     859     861     862      422     421     423     424
     804     805     807     808      452     453     455     456
     696     697     699     700      694     693     695     696
     609     611     613     615      404     403     405     406
     256     255     257     258      980     979     981     982
     406     405     407     408      500     499     501     502
     957     959     961     963      852     851     853     854
     582     581     583     584      261     263     265     267
     864     865     867     868      144     143     145     146
     172     171     173     174      763     765     767     769
     930     929     931     932       40      41      43      44
     163     165     167     169      692     693     695     696
     520     519     521     522      278     277     279     280
     626     627     629     630      523     525     527     529
     354     355     357     358      394     395     397     398
     522     521     523     524      951     953     955     957
     922     921     923     924      113     115     117     119
     950     949     951     952      357     359     361     363
     470     469     471     472      674     675     677     678
     460     461     463     464      704     705     707     708
     112     111     113     114      654     655     657     658
     729     731     733     735       34      35      37      38
     681     683     685     687      887     889     891     893
     784     785     787     788      735     737     739     741
     150     151     153     154      290     289     291     292
     842     843     845     846      464     465     467     468
     517     519     521     523      170     171     173     174
      54      53      55      56      238     237     239     240
     726     725     727     728      898     899     901     902
     568     569     571     572      504     503     505     506
      71      73      75      77      204     203     205     206
      95      97      99     101      968     969     971     972
     212     213     215     216      882     883     885     886
     910     911     913     914      258     257     259     260
     502     501     503     504      863     865     867     869
     912     913     915     916      845     847     849     851
     547     549     551     553      648     649     651     652
      20      21      23      24      913     915     917     919
     720     719     721     722      336     335     337     338
     638     639     641     642      339     341     343     345
     744     743     745     746      392     393     395     396
     732     733     735     736      690     689     691     692
     422     423     425     426       42      43      45      46
     403     405     407     409      694     695     697     698
     606     605     607     608      599     601     603     605
     598     597     599     600      252     251     253     254
     892     893     895     896      822     821     823     824
     860     861     863     864      398     399     401     402
     953     955     957     959      386     385     387     388
     852     853     855     856      115     117     119     121
     952     951     953     954      359     361     363     365
     469     471     473     475      458     457     459     460
     377     379     381     383      472     471     473     474
     114     113     115     116      358     357     359     360
     574     573     575     576      361     363     365     367
     274     273     275     276      437     439     441     443
     334     335     337     338      844     845     847     848
      86      87      89      90       36      37      39      40
     817     819     821     823      798     797     799     800
     633     635     637     639      708     709     711     712
     520     521     523     524      254     253     255     256
     592     591     593     594      211     213     215     217
     922     923     925     926      228     227     229     230
     210     209     211     212      806     805     807     808
     809     811     813     815       75      77      79      81
      98      97      99     100      290     291     293     294
     619     621     623     625      613     615     617     619
      74      75      77      78      850     851     853     854
     230     231     233     234      424     425     427     428
     959     961     963     965      934     935     937     938
     312     313     315     316      784     783     785     786
     258     259     261     262      982     983     985     986
      86      85      87      88      191     193     195     197
     182     181     183     184      435     437     439     441
     158     157     159     160      388     387     389     390
     165     167     169     171      854     855     857     858
     116     115     117     118      556     557     559     560
     528     527     529     530      956     955     957     958
     942     941     943     944      632     633     635     636
     491     493     495     497      276     275     277     278
     166     165     167     168      380     381     383     384
     441     443     445     447       66      67      69      70
     250     251     253     254      937     939     941     943
      81      83      85      87      383     385     387     389
      51      53      55      57      219     221     223     225
     822     823     825     826      496     497     499     500
     488     487     489     490      215     217     219     221
     570     569     571     572      952     953     955     956
     555     557     559     561      487     489     491     493
     214     213     215     216      461     463     465     467
     373     375     377     379      460     459     461     462
     645     647     649     651      162     161     163     164
     560     561     563     564      173     175     177     179
     566     567     569     570      785     787     789     791
     621     623     625     627      368     367     369     370
     448     447     449     450      350     351     353     354
     587     589     591     593      966     967     969     970
     907     909     911     913      302     303     305     306
     528     529     531     532      130     131     133     134
     906     905     907     908      197     199     201     203
     412     413     415     416      787     789     791     793
     984     985     987     988       10       9      11      12
     811     813     815     817       32      31      33      34
     194     193     195     196       12      11      13      14
     818     817     819     820      867     869     871     873
     895     897     899     901      793     795     797     799
      14      13      15      16      494     495     497     498
     353     355     357     359      792     791     793     794
     740     741     743     744      636     635     637     638
     458     459     461     462      977     979     981     983
     557     559     561     563      679     681     683     685
     871     873     875     877      703     705     707     709
     768     769     771     772      870     869     871     872
     408     407     409     410      702     701     703     704
     954     955     957     958      225     227     229     231
     217     219     221     223      500     501     503     504
     865     867     869     871      116     117     119     120
     850     849     851     852      975     977     979     981
     203     205     207     209      216     215     217     218
     956     957     959     960      677     679     681     683
     188     187     189     190      463     465     467     469
     375     377     379     381      658     659     661     662
     118     119     121     122      676     675     677     678
     462     461     463     464      346     345     347     348
     295     297     299     301      349     351     353     355
     727     729     731     733      919     921     923     925
     301     303     305     307      604     605     607     608
     634     635     637     638      624     625     627     628
     719     721     723     725      909     911     913     915
     665     667     669     671      883     885     887     889
     664     663     665     666      780     779     781     782
     993     995     997     999      882     881     883     884
     761     763     765     767      644     643     645     646
      65      67      69      71      289     291     293     295
     987     989     991     993      646     645     647     648
     745     747     749     751      447     449     451     453
      83      85      87      89      942     943     945     946
     238     239     241     242      482     483     485     486
      63      65      67      69       62      61      63      64
      96      95      97      98      820     819     821     822
     519     521     523     525      659     661     663     665
     962     961     963     964      824     825     827     828
     150     149     151     152      573     575     577     579
     178     177     179     180      742     741     743     744
     356     357     359     360      572     571     573     574
     798     799     801     802      307     309     311     313
      88      89      91      92      928     927     929     930
     533     535     537     539      190     189     191     192
     434     433     435     436       12      13      15      16
     742     743     745     746      632     631     633     634
     336     337     339     340      792     793     795     796
     833     835     837     839      412     411     413     414
     920     919     921     922      544     545     547     548
     147     149     151     153      241     243     245     247
     213     215     217     219      918     917     919     920
     971     973     975     977      994     993     995     996
     970     971     973     974      970     969     971     972
     532     531     533     534      188     189     191     192
     234     233     235     236      450     449     451     452
     563     565     567     569      676     677     679     680
      69      71      73      75      764     763     765     766
     423     425     427     429      451     453     455     457
     442     441     443     444      941     943     945     947
     698     697     699     700      128     129     131     132
     344     345     347     348      399     401     403     405
     356     355     357     358      444     443     445     446
     661     663     665     667       64      63      65      66
     248     247     249     250      861     863     865     867
     832     833     835     836      601     603     605     607
     210     211     213     214      780     781     783     784
     900     899     901     902      389     391     393     395
     716     715     717     718      545     547     549     551
      90      91      93      94        2       1       3       4
      36      35      37      38      816     815     817     818
     480     481     483     484      738     739     741     742
     604     603     605     606      847     849     851     853
     366     367     369     370      938     937     939     940
     634     633     635     636      628     627     629     630
     543     545     547     549      332     331     333     334
     142     141     143     144       34      33      35      36
     894     893     895     896      668     669     671     672
     706     705     707     708      382     383     385     386
     973     975     977     979      220     219     221     222
     559     561     563     565      972     971     973     974
     926     925     927     928      321     323     325     327
     388     389     391     392      537     539     541     543
     190     191     193     194      434     435     437     438
     935     937     939     941      678     679     681     682
     672     671     673     674      890     891     893     894
     918     919     921     922      306     305     307     308
     840     839     841     842      615     617     619     621
     643     645     647     649      825     827     829     831
     240     239     241     242      426     427     429     430
     454     455     457     458      827     829     831     833
     401     403     405     407      406     407     409     410
     800     799     801     802      802     803     805     806
     160     161     163     164      286     287     289     290
     400     399     401     402      902     901     903     904
     638     637     639     640      884     885     887     888
     984     983     985     986       93      95      97      99
     762     763     765     766      195     197     199     201
      92      91      93      94      637     639     641     643
     549     551     553     555      586     585     587     588
      41      43      45      47      414     415     417     418
     300     301     303     304       21      23      25      27
     368     369     371     372      714     715     717     718
     612     613     615     616      630     629     631     632
     516     515     517     518      394     393     395     396
     623     625     627     629      430     429     431     432
     518     517     519     520      546     545     547     548
     134     133     135     136      690     691     693     694
     906     907     909     910      790     791     793     794
     594     593     595     596      453     455     457     459
     466     465     467     468      101     103     105     107
     273     275     277     279        3       5       7       9
     272     271     273     274      652     653     655     656
     193     195     197     199       56      57      59      60
     965     967     969     971      836     837     839     840
     160     159     161     162      966     965     967     968
     910     909     911     912      940     941     943     944
     222     221     223     224       24      25      27      28
     894     895     897     898      501     503     505     507
     912     911     913     914      752     751     753     754
     131     133     135     137      159     161     163     165
      20      19      21      22      968     967     969     970
     317     319     321     323      781     783     785     787
     322     323     325     326      702     703     705     706
     310     309     311     312      562     563     565     566
     498     497     499     500      617     619     621     623
     104     105     107     108      739     741     743     745
     481     483     485     487      821     823     825     827
     551     553     555     557      144     145     147     148
     172     173     175     176      341     343     345     347
     450     451     453     454      934     933     935     936
     540     541     543     544       43      45      47      49
      33      35      37      39      288     287     289     290
      42      41      43      44      174     175     177     178
     229     231     233     235      107     109     111     113
      38      39      41      42      926     927     929     930
     768     767     769     770      614     613     615     616
     254     255     257     258      529     531     533     535
     226     225     227     228      800     801     803     804
     595     597     599     601      420     421     423     424
     673     675     677     679      766     765     767     768
     468     467     469     470      760     759     761     762
     304     305     307     308      791     793     795     797
     439     441     443     445       94      93      95      96
     762     761     763     764      921     923     925     927
     708     707     709     710      470     471     473     474
     516     517     519     520      139     141     143     145
     223     225     227     229      318     317     319     320
     647     649     651     653      518     519     521     522
     546     547     549     550      571     573     575     577
     207     209     211     213      837     839     841     843
     754     753     755     756      879     881     883     885
     319     321     323     325      324     323     325     326
     631     633     635     637      184     185     187     188
     482     481     483     484      696     695     697     698
     226     227     229     230      641     643     645     647
     851     853     855     857      312     311     313     314
     198     197     199     200      715     717     719     721
     686     685     687     688      667     669     671     673
     342     341     343     344      548     549     551     552
     419     421     423     425      146     145     147     148
     324     325     327     328      352     353     355     356
     929     931     933     935       30      29      31      32
     603     605     607     609      117     119     121     123
      76      77      79      80      530     531     533     534
     878     879     881     882      385     387     389     391
     498     499     501     502      988     989     991     992
     282     283     285     286      478     479     481     482
     148     149     151     152      337     339     341     343
     384     383     385     386      186     185     187     188
     772     773     775     776      836     835     837     838
     838     839     841     842      360     361     363     364
     299     301     303     305       17      19      21      23
     472     473     475     476      248     249     251     252
     831     833     835     837      725     727     729     731
     818     819     821     822      830     829     831     832
     108     109     111     112      575     577     579     581
     199     201     203     205      566     565     567     568
      26      25      27      28      706     707     709     710
     778     777     779     780      102     101     103     104
     568     567     569     570       80      79      81      82
      92      93      95      96      125     127     129     131
     734     735     737     738      231     233     235     237
     304     303     305     306      938     939     941     942
     323     325     327     329       73      75      77      79
     200     199     201     202      752     753     755     756
     996     997     999    1000      329     331     333     335
     807     809     811     813      646     647     649     650
     542     543     545     546      892     891     893     894
     858     857     859     860      346     347     349     350
     158     159     161     162      550     551     553     554
     754     755     757     758      903     905     907     909
     931     933     935     937      130     129     131     132
     700     701     703     704      891     893     895     897
     772     771     773     774      802     801     803     804
     476     475     477     478      120     121     123     124
      18      17      19      20      746     745     747     748
       4       3       5       6      208     207     209     210
     480     479     481     482      264     265     267     268
      67      69      71      73      853     855     857     859
     198     199     201     202      824     823     825     826
     554     553     555     556      672     673     675     676
      11      13      15      17       87      89      91      93
     736     735     737     738      152     151     153     154
     733     735     737     739       98      99     101     102
     699     701     703     705      176     177     179     180
     138     139     141     142      454     453     455     456
       2       3       5       6      384     385     387     388
     911     913     915     917      404     405     407     408
     459     461     463     465      103     105     107     109
     167     169     171     173      411     413     415     417
     513     515     517     519      291     293     295     297
     939     941     943     945      868     869     871     872
     270     269     271     272      924     925     927     928
     713     715     717     719      814     815     817     818
     969     971     973     975      376     377     379     380
     711     713     715     717      620     621     623     624
     830     831     833     834      756     757     759     760
     988     987     989     990      311     313     315     317
     905     907     909     911       26      27      29      30
      50      49      51      52      904     903     905     906
     585     587     589     591      640     639     641     642
     684     685     687     688      880     879     881     882
     259     261     263     265      122     121     123     124
     285     287     289     291      449     451     453     455
     170     169     171     172      316     317     319     320
     691     693     695     697       23      25      27      29
     493     495     497     499      492     491     493     494
     278     279     281     282      152     153     155     156
     446     445     447     448      794     795     797     798
     758     757     759     760      877     879     881     883
     497     499     501     503      142     143     145     146
     876     875     877     878      255     257     259     261
     680     679     681     682      580     581     583     584
     565     567     569     571      515     517     519     521
     731     733     735     737      866     867     869     870
     650     649     651     652      514     513     515     516
     730     729     731     732      484     485     487     488
     274     275     277     278      635     637     639     641
     444     445     447     448      105     107     109     111
     544     543     545     546      164     163     165     166
     510     509     511     512       18      19      21      22
     593     595     597     599       54      55      57      58
     322     321     323     324      378     379     381     382
     622     623     625     626      948     949     951     952
     859     861     863     865      834     835     837     838
      76      75      77      78       53      55      57      59
     408     409     411     412      200     201     203     204
     668     667     669     670      293     295     297     299
      30      31      33      34      249     251     253     255
     769     771     773     775      242     243     245     246
     684     683     685     686      718     717     719     720
     260     259     261     262      355     357     359     361
     371     373     375     377       39      41      43      45
     325     327     329     331      856     855     857     858
      50      51      53      54      421     423     425     427
     318     319     321     322      420     419     421     422
     662     661     663     664       48      49      51      52
     495     497     499     501      590     591     593     594
     874     873     875     876      494     493     495     496
     914     913     915     916      275     277     279     281
     904     905     907     908      606     607     609     610
     776     777     779     780      208     209     211     212
     640     641     643     644      627     629     631     633
      84      83      85      86      149     151     153     155
     331     333     335     337       61      63      65      67
      60      59      61      62      954     953     955     956
     586     587     589     590      928     929     931     932
     963     965     967     969      888     887     889     890
     362     363     365     366      416     417     419     420
     380     379     381     382      658     657     659     660
     539     541     543     545      538     537     539     540
     732     731     733     734      146     147     149     150
     418     419     421     422      446     447     449     450
     920     921     923     924       29      31      33      35
     109     111     113     115      779     781     783     785
     428     429     431     432      569     571     573     575
     108     107     109     110      267     269     271     273
     567     569     571     573      860     859     861     862
     810     811     813     814      854     853     855     856
     186     187     189     190      402     401     403     404
     244     245     247     248      944     943     945     946
     305     307     309     311      932     931     933     934
     490     491     493     494      179     181     183     185
     720     721     723     724      917     919     921     923
     127     129     131     133      246     247     249     250
     530     529     531     532      722     723     725     726
     512     513     515     516      430     431     433     434
     961     963     965     967      374     373     375     376
     992     991     993     994      367     369     371     373
     778     779     781     782      908     909     911     912
      89      91      93      95      656     655     657     658
     360     359     361     362      284     283     285     286
     741     743     745     747       88      87      89      90
     351     353     355     357      740     739     741     742
     548     547     549     550      856     857     859     860
     280     281     283     284      936     937     939     940
     222     223     225     226      178     179     181     182
      97      99     101     103      202     201     203     204
     625     627     629     631       16      17      19      20
     540     539     541     542        9      11      13      15
     111     113     115     117      876     877     879     880
     110     109     111     112      214     215     217     218
     783     785     787     789      890     889     891     892
     269     271     273     275      782     781     783     784
     256     257     259     260      332     333     335     336
     268     267     269     270      488     489     491     492
     387     389     391     393      813     815     817     819
     189     191     193     195      433     435     437     439
     888     889     891     892      650     651     653     654
     841     843     845     847      618     619     621     622
     536     537     539     540      722     721     723     724
     347     349     351     353      683     685     687     689
     456     457     459     460      538     539     541     542
     266     265     267     268      181     183     185     187
     908     907     909     910      407     409     411     413
     750     751     753     754      759     761     763     765
     350     349     351     352      405     407     409     411
     209     211     213     215      724     725     727     728
     128     127     129     130      344     343     345     346
     432     431     433     434      698     699     701     702
     881     883     885     887      400     401     403     404
     832     831     833     834      183     185     187     189
     828     829     831     832      950     951     953     954
     402     403     405     406      671     673     675     677
     369     371     373     375      363     365     367     369
     221     223     225     227      579     581     583     585
     118     117     119     120      584     583     585     586
     362     361     363     364      262     263     265     266
      91      93      95      97      709     711     713     715
     578     577     579     580       90      89      91      92
     413     415     417     419      765     767     769     771
      38      37      39      40       96      97      99     100
     366     365     367     368      506     507     509     510
     990     989     991     992      552     553     555     556
     342     343     345     346      789     791     793     795
      44      45      47      48      140     139     141     142
     280     279     281     282      550     549     551     552
     656     657     659     660      812     811     813     814
     600     599     601     602      880     881     883     884
       6       5       7       8       62      63      65      66
     218     217     219     220      247     249     251     253
     483     485     487     489      410     411     413     414
      80      81      83      84      135     137     139     141
     893     895     897     899      464     463     465     466

       0 !NIMPHI


       0 !NDON: donors



       0 !NACC: acceptors



       0 !NNB

      0       0       0       0       0       0       0       0
      0       0       0       0       0       0       0       0
      0       0       0       0       0       0       0       0
      0       0       0       0       0       0       0       0
      0       0       0       0       0       0       0       0
      0       0       0       0       0       0       0       0
      0       0       0       0       0       0       0       0
      0       0       0       0       0       0       0       0
      0       0       0       0       0       0       0       0
      0       0       0       0       0       0       0       0
      0       0       0       0       0       0       0       0
      0       0       0       0       0       0       0       0
      0       0       0       0       0       0       0       0
      0       0       0       0       0       0       0       0
      0       0       0       0       0       0       0       0
      0       0       0       0       0       0       0       0
      0       0       0       0       0       0       0       0
      0       0       0       0       0       0       0       0
      0       0       0       0       0       0       0       0
      0       0       0       0       0       0       0       0
      0       0       0       0       0       0       0       0
      0       0       0       0       0       0       0       0
      0       0       0       0       0       0       0       0
      0       0       0       0       0       0       0       0
      0       0       0       0       0       0       0       0
      0       0       0       0       0       0       0       0
      0       0       0       0       0       0       0       0
      0       0       0       0       0       0       0       0
      0       0       0       0       0       0       0       0
      0       0       0       0       0       0       0       0
      0       0       0       0       0       0       0       0
      0       0       0       0       0       0       0       0
      0       0       0       0       0       0       0       0
      0       0       0       0       0       0       0       0
      0       0       0       0       0       0       0       0
      0       0       0       0       0       0       0       0
      0       0       0       0       0       0       0       0
      0       0       0       0       0       0       0       0
      0       0       0       0       0       0       0       0
      0       0       0       0       0       0       0       0
      0       0       0       0       0       0       0       0
      0       0       0       0       0       0       0       0
      0       0       0       0       0       0       0       0
      0       0       0       0       0       0       0       0
      0       0       0       0       0       0       0       0
      0       0       0       0       0       0       0       0
      0       0       0       0       0       0       0       0
      0       0       0       0       0       0       0       0
      0       0       0       0       0       0       0       0
      0       0       0       0       0       0       0       0
      0       0       0       0       0       0       0       0
      0       0       0       0       0       0       0       0
      0       0       0       0       0       0       0       0
      0       0       0       0       0       0       0       0
      0       0       0       0       0       0       0       0
      0       0       0       0       0       0       0       0
      0       0       0       0       0       0       0       0
      0       0       0       0       0       0       0       0
      0       0       0       0       0       0       0       0
      0       0       0       0       0       0       0       0
      0       0       0       0       0       0       0       0
      0       0       0       0       0       0       0       0
      0       0       0       0       0       0       0       0
      0       0       0       0       0       0       0       0
      0       0       0       0       0       0       0       0
      0       0       0       0       0       0       0       0
      0       0       0       0       0       0       0       0
      0       0       0       0       0       0       0       0
      0       0       0       0       0       0       0       0
      0       0       0       0       0       0       0       0
      0       0       0       0       0       0       0       0
      0       0       0       0       0       0       0       0
      0       0       0       0       0       0       0       0
      0       0       0       0       0       0       0       0
      0       0       0       0       0       0       0       0
      0       0       0       0       0       0       0       0
      0       0       0       0       0       0       0       0
      0       0       0       0       0       0       0       0
      0       0       0       0       0       0       0       0
      0       0       0       0       0       0       0       0
      0       0       0       0       0       0       0       0
      0       0       0       0       0       0       0       0
      0       0       0       0       0       0       0       0
      0       0       0       0       0       0       0       0
      0       0       0       0       0       0       0       0
      0       0       0       0       0       0       0       0
      0       0       0       0       0       0       0       0
      0       0       0       0       0       0       0       0
      0       0       0       0       0       0       0       0
      0       0       0       0       0       0       0       0
      0       0       0       0       0       0       0       0
      0       0       0       0       0       0       0       0
      0       0       0       0       0       0       0       0
      0       0       0       0       0       0       0       0
      0       0       0       0       0       0       0       0
      0       0       0       0       0       0       0       0
      0       0       0       0       0       0       0       0
      0       0       0       0       0       0       0       0
      0       0       0       0       0       0       0       0
      0       0       0       0       0       0       0       0
      0       0       0       0       0       0       0       0
      0       0       0       0       0       0       0       0
      0       0       0       0       0       0       0       0
      0       0       0       0       0       0       0       0
      0       0       0       0       0       0       0       0
      0       0       0       0       0       0       0       0
      0       0       0       0       0       0       0       0
      0       0       0       0       0       0       0       0
      0       0       0       0       0       0       0       0
      0       0       0       0       0       0       0       0
      0       0       0       0       0       0       0       0
      0       0       0       0       0       0       0       0
      0       0       0       0       0       0       0       0
      0       0       0       0       0       0       0       0
      0       0       0       0       0       0       0       0
      0       0       0       0       0       0       0       0
      0       0       0       0       0       0       0       0
      0       0       0       0       0       0       0       0
      0       0       0       0       0       0       0       0
      0       0       0       0       0       0       0       0
      0       0       0       0       0       0       0       0
      0       0       0       0       0       0       0       0
      0       0       0       0       0       0       0       0
      0       0       0       0       0       0       0       0
      0       0       0       0       0       0       0       0


       1       0 !NGRP

